#INFO: **** input file is /home/slee89/project/det_sampling/FCIDUMP_iron_sulfur_cluster/2FeIII_2FeII/1_scf/hs.py ****
#!/usr/bin/env python

from pyscf import scf
from pyscf import gto,dft

mol = gto.Mole()
mol.verbose = 6
mol.output = 'hs_bp86.out'
mol.atom = '''
S   0.04  -1.78  -1.292   
S  -0.04  1.78  -1.293   
S   1.78  -0.04  1.294   
S  -1.78  0.04   1.295   
Fe  0.05  -1.37  1.016   
Fe  -1.38  0.05  -1.007   
Fe  -0.05  1.38   1.008   
Fe  1.37  -0.05  -1.019   
S   0.24   3.30   2.1410  
S  -0.24  -3.29  2.1411  
S  -3.29  -0.24  -2.1412  
S   3.29   0.24  -2.1413  
C  -3.80  -1.84  -1.3814  
H  -3.91  -1.71  -0.2915  
H  -4.76  -2.17  -1.8116  
H  -3.03  -2.60  -1.5617  
C   3.80   1.83  -1.3818  
H   3.91   1.71  -0.2919  
H   4.76   2.16  -1.8120  
H   3.03   2.59  -1.5521  
C  -1.83  -3.80  1.3822  
H  -2.16  -4.76  1.8123  
H  -2.59  -3.03  1.5524  
H  -1.70  -3.91  0.2925  
C   1.84   3.80   1.3826  
H   2.17   4.76   1.8127  
H   2.60   3.03   1.5628  
H   1.71   3.91   0.29
'''
mol.basis = 'tzp-dkh'
mol.charge = -2
mol.spin = 18 #na-nb
mol.build()

mf = scf.sfx2c(scf.UKS(mol))
mf.chkfile = 'hs_bp86.chk'
mf.max_cycle = 500
mf.conv_tol = 1.e-4
mf.xc = 'b88,p86' 
mf.scf()

mf2 = scf.newton(mf)
#mf2.ah_start_tol = 1.e-8
#mf2.ah_conv_tol = 1.e-14
mf2.conv_tol = 1.e-12
mf2.kernel()
#INFO: ******************** input file end ********************


System: ('Linux', 'pauling050', '3.10.0-327.36.3.el7.x86_64', '#1 SMP Thu Oct 20 04:56:07 EDT 2016', 'x86_64', 'x86_64')  Threads 36
Python 2.7.15 |Anaconda, Inc.| (default, Dec 14 2018, 19:04:19) 
[GCC 7.3.0]
numpy 1.15.4  scipy 1.1.0
Date: Wed Sep  8 23:18:17 2021
PySCF version 1.6.5
PySCF path  /home/slee89/pyscf/pyscf
GIT ORIG_HEAD 58d2984cbb4817f296e71e3abff449f1fa07e814
GIT HEAD      ref: refs/heads/master
GIT master branch  8be82553fa576f2a5d734b9b9d77c546f232bf62

[CONFIG] conf_file None
[INPUT] verbose = 6
[INPUT] max_memory = 4000 
[INPUT] num. atoms = 28
[INPUT] num. electrons = 270
[INPUT] charge = -2
[INPUT] spin (= nelec alpha-beta = 2S) = 18
[INPUT] symmetry False subgroup None
[INPUT] Mole.unit = angstrom
[INPUT]  1 S      0.040000000000  -1.780000000000  -1.292000000000 AA    0.075589044983  -3.363712501726  -2.441526152938 Bohr
[INPUT]  2 S     -0.040000000000   1.780000000000  -1.293000000000 AA   -0.075589044983   3.363712501726  -2.443415879063 Bohr
[INPUT]  3 S      1.780000000000  -0.040000000000   1.294000000000 AA    3.363712501726  -0.075589044983   2.445305605187 Bohr
[INPUT]  4 S     -1.780000000000   0.040000000000   1.295000000000 AA   -3.363712501726   0.075589044983   2.447195331312 Bohr
[INPUT]  5 Fe     0.050000000000  -1.370000000000   1.016000000000 AA    0.094486306228  -2.588924790654   1.919961742558 Bohr
[INPUT]  6 Fe    -1.380000000000   0.050000000000  -1.007000000000 AA   -2.607822051900   0.094486306228  -1.902954207437 Bohr
[INPUT]  7 Fe    -0.050000000000   1.380000000000   1.008000000000 AA   -0.094486306228   2.607822051900   1.904843933562 Bohr
[INPUT]  8 Fe     1.370000000000  -0.050000000000  -1.019000000000 AA    2.588924790654  -0.094486306228  -1.925630920932 Bohr
[INPUT]  9 S      0.240000000000   3.300000000000   2.141000000000 AA    0.453534269896   6.236096211065   4.045903632694 Bohr
[INPUT] 10 S     -0.240000000000  -3.290000000000   2.141100000000 AA   -0.453534269896  -6.217198949819   4.046092605306 Bohr
[INPUT] 11 S     -3.290000000000  -0.240000000000  -2.141200000000 AA   -6.217198949819  -0.453534269896  -4.046281577919 Bohr
[INPUT] 12 S      3.290000000000   0.240000000000  -2.141300000000 AA    6.217198949819   0.453534269896  -4.046470550531 Bohr
[INPUT] 13 C     -3.800000000000  -1.840000000000  -1.381400000000 AA   -7.180959273347  -3.477096069200  -2.610467668474 Bohr
[INPUT] 14 H     -3.910000000000  -1.710000000000  -0.291500000000 AA   -7.388829147049  -3.231431673006  -0.550855165311 Bohr
[INPUT] 15 H     -4.760000000000  -2.170000000000  -1.811600000000 AA   -8.995096352930  -4.100705690306  -3.423427847262 Bohr
[INPUT] 16 H     -3.030000000000  -2.600000000000  -1.561700000000 AA   -5.725870157432  -4.913287923869  -2.951185288733 Bohr
[INPUT] 17 C      3.800000000000   1.830000000000  -1.381800000000 AA    7.180959273347   3.458198807954  -2.611223558924 Bohr
[INPUT] 18 H      3.910000000000   1.710000000000  -0.291900000000 AA    7.388829147049   3.231431673006  -0.551611055761 Bohr
[INPUT] 19 H      4.760000000000   2.160000000000  -1.812000000000 AA    8.995096352930   4.081808429061  -3.424183737712 Bohr
[INPUT] 20 H      3.030000000000   2.590000000000  -1.552100000000 AA    5.725870157432   4.894390662624  -2.933043917937 Bohr
[INPUT] 21 C     -1.830000000000  -3.800000000000   1.382200000000 AA   -3.458198807954  -7.180959273347   2.611979449374 Bohr
[INPUT] 22 H     -2.160000000000  -4.760000000000   1.812300000000 AA   -4.081808429061  -8.995096352930   3.424750655549 Bohr
[INPUT] 23 H     -2.590000000000  -3.030000000000   1.552400000000 AA   -4.894390662624  -5.725870157432   2.933610835775 Bohr
[INPUT] 24 H     -1.700000000000  -3.910000000000   0.292500000000 AA   -3.212534411761  -7.388829147049   0.552744891435 Bohr
[INPUT] 25 C      1.840000000000   3.800000000000   1.382600000000 AA    3.477096069200   7.180959273347   2.612735339824 Bohr
[INPUT] 26 H      2.170000000000   4.760000000000   1.812700000000 AA    4.100705690306   8.995096352930   3.425506545999 Bohr
[INPUT] 27 H      2.600000000000   3.030000000000   1.562800000000 AA    4.913287923869   5.725870157432   2.953263987470 Bohr
[INPUT] 28 H      1.710000000000   3.910000000000   0.290000000000 AA    3.231431673006   7.388829147049   0.548020576124 Bohr
[INPUT] ---------------- BASIS SET ---------------- 
[INPUT] l, kappa, [nprim/nctr], expnt,             c_1 c_2 ...
[INPUT] H
[INPUT] 0    0    [3    /1   ]  34.87758369       0.0233625
                                5.23397281        0.1708758
                                1.18503342        0.8057615
[INPUT] 0    0    [1    /1   ]  0.32833943           1
[INPUT] 0    0    [1    /1   ]  0.11031918           1
[INPUT] 1    0    [1    /1   ]  0.718844             1
[INPUT] 1    0    [1    /1   ]  0.35                 1
[INPUT] 2    0    [1    /1   ]  1.07506              1
[INPUT] C
[INPUT] 0    0    [5    /1   ]  7615.0599911      0.0020534
                                1145.08684615     0.0130533
                                261.91952431      0.0643852
                                74.66834196       0.2434904
                                24.40551202       0.6770175
[INPUT] 0    0    [2    /1   ]  8.68679013        0.5654885
                                3.23657623        0.4345114
[INPUT] 0    0    [1    /1   ]  1.30179999           1
[INPUT] 0    0    [1    /1   ]  0.52768873           1
[INPUT] 0    0    [1    /1   ]  0.15694534           1
[INPUT] 1    0    [4    /1   ]  34.50767936       0.0105595
                                7.91304441        0.0694749
                                2.36615458        0.2809656
                                0.81172425        0.6389997
[INPUT] 1    0    [1    /1   ]  0.31228882           1
[INPUT] 1    0    [1    /1   ]  0.11400266           1
[INPUT] 2    0    [1    /1   ]  1.154049             1
[INPUT] 2    0    [1    /1   ]  0.3511286            1
[INPUT] 3    0    [1    /1   ]  0.819312             1
[INPUT] S
[INPUT] 0    0    [5    /1   ]  131334.981146     0.0045222
                                20181.9004192     0.0170834
                                4835.70463137     0.06138
                                1439.7381539      0.2163513
                                476.15426264      0.7006628
[INPUT] 0    0    [2    /1   ]  3.37495581        -0.6416942
                                1.51749916        -0.3583057
[INPUT] 0    0    [1    /1   ]  168.68252004         1
[INPUT] 0    0    [1    /1   ]  62.92253974          1
[INPUT] 0    0    [1    /1   ]  24.33329987          1
[INPUT] 0    0    [1    /1   ]  6.86573753           1
[INPUT] 0    0    [1    /1   ]  0.44651463           1
[INPUT] 0    0    [1    /1   ]  0.16174242           1
[INPUT] 1    0    [6    /1   ]  754.1523594       0.0016298
                                193.63344693      0.0107176
                                64.14106193       0.0507981
                                23.75714449       0.1689232
                                9.45234322        0.3528926
                                3.93996824        0.4150384
[INPUT] 1    0    [1    /1   ]  1.72080555           1
[INPUT] 1    0    [1    /1   ]  0.77076298           1
[INPUT] 1    0    [1    /1   ]  0.28737379           1
[INPUT] 1    0    [1    /1   ]  0.1011323            1
[INPUT] 2    0    [1    /1   ]  0.264839             1
[INPUT] 2    0    [1    /1   ]  0.781337             1
[INPUT] 3    0    [1    /1   ]  0.58379              1
[INPUT] Fe
[INPUT] 0    0    [6    /1   ]  489363.919998     0.0030585
                                76936.8824954     0.0091433
                                19111.8789691     0.0269235
                                5953.14711781     0.0759663
                                2026.23124631     0.2328575
                                720.41679911      0.6520506
[INPUT] 0    0    [2    /1   ]  109.11058782      0.7224607
                                46.72162464       0.2775392
[INPUT] 0    0    [2    /1   ]  2.44747866        0.3809404
                                1.1660482         0.6190595
[INPUT] 0    0    [1    /1   ]  270.92857792         1
[INPUT] 0    0    [1    /1   ]  17.32120133          1
[INPUT] 0    0    [1    /1   ]  7.50518249           1
[INPUT] 0    0    [1    /1   ]  0.53243004           1
[INPUT] 0    0    [1    /1   ]  0.11921823           1
[INPUT] 0    0    [1    /1   ]  0.04225089           1
[INPUT] 1    0    [5    /1   ]  4524.59978956     0.0025908
                                1117.10671951     0.0145309
                                383.18041997      0.0647179
                                150.91292643      0.2368595
                                63.20731062       0.6813006
[INPUT] 1    0    [2    /1   ]  27.51598778       0.4837345
                                12.38754653       0.5162654
[INPUT] 1    0    [3    /1   ]  2.50956697        0.4902485
                                1.07890467        0.4747177
                                0.43388971        0.0350337
[INPUT] 1    0    [1    /1   ]  5.64019838           1
[INPUT] 1    0    [1    /1   ]  0.819521             1
[INPUT] 1    0    [1    /1   ]  0.42475725           1
[INPUT] 2    0    [4    /1   ]  57.37689087       0.0186728
                                16.5000892        0.1094061
                                5.79890555        0.3298519
                                2.17706897        0.5420691
[INPUT] 2    0    [1    /1   ]  0.79292368           1
[INPUT] 2    0    [1    /1   ]  0.26063792           1
[INPUT] 3    0    [1    /1   ]  3.44034529           1
[INPUT] 3    0    [1    /1   ]  0.84589748           1
[INPUT] 4    0    [1    /1   ]  2.25265017           1

nuclear repulsion = 5038.06661901155
number of shells = 328
number of NR pGTOs = 1284
number of NR cGTOs = 872
basis = tzp-dkh
ecp = {}
CPU time:         0.24


******** <class 'pyscf.x2c.sfx2c1e.SFX2C1E_SCF'> ********
method = SFX2C1E_SCF-UKS-UHF
initial guess = minao
damping factor = 0
level_shift factor = 0
DIIS = <class 'pyscf.scf.diis.CDIIS'>
diis_start_cycle = 1
diis_space = 8
SCF conv_tol = 0.0001
SCF conv_tol_grad = None
SCF max_cycles = 500
direct_scf = True
direct_scf_tol = 1e-13
chkfile to save SCF result = hs_bp86.chk
max_memory 4000 MB (current use 52 MB)
number electrons alpha = 144  beta = 126
XC functionals = b88,p86
small_rho_cutoff = 1e-07
radial grids: 
    Treutler-Ahlrichs (JCP 102, 346 (M4)) radial grids
    
becke partition: Becke, JCP, 88, 2547 (1988)
pruning grids: <function nwchem_prune at 0x7f0681ba3b90>
grids dens level: 3
symmetrized grids: False
atomic radii adjust function: <function treutler_atomic_radii_adjust at 0x7f0681ba3aa0>


******** <class 'pyscf.x2c.sfx2c1e.SpinFreeX2C'> ********
approx = 1e
xuncontract = 1
Set gradient conv threshold to 0.01
Nelec from initial guess = (133.9932122236775, 133.9932122236775)
cond(S) = 9709.285778167345
atom S rad-grids = 80, ang-grids = [ 50  50  50  50  50  50  50  50  50  50  50  50  50  50  50  50  50  50
  50  50  50  50  50  50  86  86  86  86  86  86  86  86  86  86  86  86
  86 350 350 350 350 350 350 350 350 350 434 434 434 434 434 434 434 434
 434 434 434 434 434 434 434 434 434 434 350 350 350 350 350 350 350 350
 350 350 350 350 350 350 350 350]
atom Fe rad-grids = 90, ang-grids = [ 50  50  50  50  50  50  50  50  50  50  50  50  50  50  50  50  50  50
  50  50  50  50  50  50  50  50  50  50  50  50  86  86  86  86  86  86
  86  86  86  86  86  86  86  86  86  86 350 350 350 350 350 350 350 350
 350 350 350 434 434 434 434 434 434 434 434 434 434 434 434 434 434 434
 434 434 434 434 434 434 350 350 350 350 350 350 350 350 350 350 350 350]
atom C rad-grids = 75, ang-grids = [ 50  50  50  50  50  50  50  50  50  50  50  50  50  50  50  50  50  50
  50  50  50  50  50  86  86  86  86  86  86  86  86  86  86 266 266 266
 266 266 266 266 302 302 302 302 302 302 302 302 302 302 302 302 302 302
 302 302 302 302 302 302 266 266 266 266 266 266 266 266 266 266 266 266
 266 266 266]
atom H rad-grids = 50, ang-grids = [ 50  50  50  50  50  50  50  50  50  50  50  50  50  50  86  86  86  86
 266 266 266 266 302 302 302 302 302 302 302 302 302 302 302 302 302 266
 266 266 266 266 266 266 266 266 266 266 266 266 266 266]
tot grids = 407096
Drop grids 54736
    CPU time for setting up grids     53.04 sec, wall time      1.53 sec
nelec by numeric integration = [133.99349437 133.99349437]
    CPU time for vxc    207.79 sec, wall time      5.92 sec
    CPU time for vj and vk    819.29 sec, wall time     23.36 sec
E1 = -21686.41273383388  Ecoul = 8657.01239981167  Exc = -457.1441866779117
init E= -8448.47790168857
    CPU time for initialize scf   1120.67 sec, wall time     35.96 sec
  alpha nocc = 144  HOMO = -0.273059168022739  LUMO = -0.0953584289297064
  beta  nocc = 126  HOMO = -0.380168245610251  LUMO = -0.37515548962779

WARN: system HOMO -0.273059168022736 >= system LUMO -0.37515548962779

  alpha mo_energy =
[-2.57321281e+02 -2.57321257e+02 -2.57321211e+02 -2.57321149e+02
 -8.84778083e+01 -8.84777360e+01 -8.84775969e+01 -8.84773681e+01
 -8.84474478e+01 -8.84473909e+01 -8.84473872e+01 -8.84470665e+01
 -3.03271871e+01 -3.03271602e+01 -3.03270851e+01 -3.03270099e+01
 -2.58833025e+01 -2.58832763e+01 -2.58832318e+01 -2.58831641e+01
 -2.58830575e+01 -2.58830391e+01 -2.58830266e+01 -2.58830016e+01
 -2.58829927e+01 -2.58829534e+01 -2.58829249e+01 -2.58828944e+01
 -1.01909350e+01 -1.01908760e+01 -1.01902047e+01 -1.01901837e+01
 -7.84330350e+00 -7.84322678e+00 -7.84307877e+00 -7.84283638e+00
 -7.81171030e+00 -7.81164725e+00 -7.81162313e+00 -7.81129043e+00
 -5.81439588e+00 -5.81432143e+00 -5.81418983e+00 -5.81395080e+00
 -5.81298981e+00 -5.81291541e+00 -5.81279047e+00 -5.81277865e+00
 -5.81271099e+00 -5.81253890e+00 -5.81253792e+00 -5.81229743e+00
 -5.78294782e+00 -5.78288077e+00 -5.78287189e+00 -5.78251284e+00
 -5.78228281e+00 -5.78222291e+00 -5.78217528e+00 -5.78186592e+00
 -5.78079376e+00 -5.78073281e+00 -5.78072403e+00 -5.78039958e+00
 -3.60089082e+00 -3.60069677e+00 -3.60061943e+00 -3.60053009e+00
 -2.35770269e+00 -2.35617422e+00 -2.35603236e+00 -2.35522123e+00
 -2.35208988e+00 -2.35187963e+00 -2.35133831e+00 -2.35123351e+00
 -2.35117036e+00 -2.35076767e+00 -2.35066234e+00 -2.35023702e+00
 -8.09232784e-01 -8.04597705e-01 -8.02727835e-01 -8.02267001e-01
 -7.93663447e-01 -7.69430016e-01 -7.69081762e-01 -7.66471623e-01
 -6.71394540e-01 -6.71260950e-01 -6.69233027e-01 -6.68905663e-01
 -5.18054986e-01 -4.97149212e-01 -4.92872813e-01 -4.92027976e-01
 -4.89749706e-01 -4.84351453e-01 -4.82375650e-01 -4.78633341e-01
 -4.78310773e-01 -4.77937825e-01 -4.73191409e-01 -4.72304001e-01
 -4.68059845e-01 -4.66968444e-01 -4.64750289e-01 -4.64680910e-01
 -4.60953866e-01 -4.53537956e-01 -4.53350688e-01 -4.50718160e-01
 -4.45816962e-01 -4.45702442e-01 -4.39668166e-01 -4.35595556e-01
 -4.29864123e-01 -4.23886571e-01 -4.13487093e-01 -4.13185402e-01
 -4.10139639e-01 -4.07778816e-01 -4.03615240e-01 -4.03100490e-01
 -4.02835433e-01 -3.80168246e-01 -3.75155490e-01 -3.67340171e-01
 -3.67161496e-01 -3.65926969e-01 -3.24733201e-01 -3.24312792e-01
 -3.23875169e-01 -3.15461452e-01 -3.14780708e-01 -3.13917621e-01
 -2.98425936e-01 -2.83495757e-01 -2.83241938e-01 -2.80249692e-01
 -2.80135423e-01 -2.79681824e-01 -2.73174120e-01 -2.73059168e-01
 -9.53584289e-02 -9.24300876e-02 -8.48380140e-02 -8.24883957e-02
 -8.22600773e-02 -4.07419413e-02 -4.03805759e-02 -3.99857057e-02
 -3.60800617e-02 -2.61164952e-02 -2.42015017e-02 -2.34121784e-02
  1.23425561e-03  1.68711527e-03  1.97586505e-03  2.91645713e-03
  1.02202699e-02  2.29900461e-02  2.35873811e-02  3.88105145e-02
  3.93310171e-02  4.18050865e-02  4.86395648e-02  5.15986491e-02
  6.29888246e-02  6.65865035e-02  6.72913653e-02  8.17091254e-02
  8.26019455e-02  8.32583077e-02  9.13942673e-02  9.14797341e-02
  1.02134279e-01  1.06897641e-01  1.16286455e-01  1.17010733e-01
  1.18604343e-01  1.32779451e-01  1.35037170e-01  1.40375334e-01
  1.50083533e-01  1.58968790e-01  1.59184005e-01  1.59988567e-01
  1.60554483e-01  1.63346900e-01  1.64378670e-01  1.68693294e-01
  1.71127022e-01  1.71500459e-01  1.71584957e-01  1.73242478e-01
  1.74242273e-01  1.76606507e-01  1.76773228e-01  1.82306792e-01
  1.82644505e-01  1.90676107e-01  1.97775420e-01  2.02023966e-01
  2.09600270e-01  2.13048620e-01  2.13547607e-01  2.22021909e-01
  2.22713110e-01  2.22845278e-01  2.25146194e-01  2.26622095e-01
  2.54261707e-01  2.54639303e-01  2.68337097e-01  2.72098620e-01
  2.79424381e-01  2.79657029e-01  2.89535550e-01  2.99099630e-01
  3.01137460e-01  3.01932725e-01  3.06747861e-01  3.17284637e-01
  3.17775579e-01  3.19273862e-01  3.34386102e-01  3.48291421e-01
  3.48818362e-01  3.67265842e-01  3.69074880e-01  3.76583059e-01
  3.77338777e-01  3.80395491e-01  3.80899626e-01  3.87882335e-01
  3.89144129e-01  3.89367937e-01  4.00919006e-01  4.05815060e-01
  4.06029376e-01  4.13383369e-01  4.14257054e-01  4.14653631e-01
  4.17360427e-01  4.27142222e-01  4.27832346e-01  4.48945257e-01
  4.56721650e-01  4.56896553e-01  4.57074678e-01  4.62922215e-01
  4.67973888e-01  4.71207803e-01  4.71555461e-01  4.84851474e-01
  5.13293766e-01  5.26703715e-01  5.34717425e-01  5.35416697e-01
  5.42776799e-01  5.55521168e-01  5.57265715e-01  5.57976071e-01
  5.74057933e-01  5.74442767e-01  5.86975645e-01  5.90642961e-01
  5.91707626e-01  5.91873466e-01  6.02562665e-01  6.06084811e-01
  6.09950202e-01  6.13439281e-01  6.13768862e-01  6.44104226e-01
  6.53797168e-01  6.68513049e-01  6.68873128e-01  6.81878562e-01
  6.82415258e-01  6.83757080e-01  6.96915216e-01  7.07723404e-01
  7.16747622e-01  7.48604178e-01  7.50153369e-01  7.55733738e-01
  7.71524718e-01  7.87232598e-01  7.87867425e-01  7.89516819e-01
  7.90243494e-01  7.92836057e-01  8.04271732e-01  8.10654331e-01
  8.11854659e-01  8.13060708e-01  8.13758370e-01  8.20685877e-01
  8.21234579e-01  8.27829649e-01  8.62870460e-01  8.63526529e-01
  8.68147835e-01  8.68550924e-01  8.76676030e-01  8.84742348e-01
  8.86857916e-01  8.88734815e-01  8.97465925e-01  8.98553978e-01
  8.98698736e-01  9.13759742e-01  9.17546033e-01  9.23604873e-01
  9.24056194e-01  9.30415724e-01  9.31090965e-01  9.32155781e-01
  9.39675353e-01  9.40059665e-01  9.64639613e-01  9.90070191e-01
  9.90583601e-01  9.93282798e-01  9.96665878e-01  1.02673719e+00
  1.03427811e+00  1.03923726e+00  1.04317021e+00  1.04339207e+00
  1.04401473e+00  1.05921482e+00  1.06150119e+00  1.07516607e+00
  1.07726488e+00  1.08434113e+00  1.08710225e+00  1.09177811e+00
  1.09428972e+00  1.09665018e+00  1.16732987e+00  1.18433232e+00
  1.18571618e+00  1.18833873e+00  1.20182798e+00  1.20239056e+00
  1.20636150e+00  1.20806586e+00  1.21076471e+00  1.21517359e+00
  1.22207140e+00  1.22592057e+00  1.27167436e+00  1.27227672e+00
  1.32686924e+00  1.32772510e+00  1.32852358e+00  1.33945002e+00
  1.34445396e+00  1.34662353e+00  1.34673800e+00  1.34842079e+00
  1.35377763e+00  1.36393194e+00  1.36644885e+00  1.36692000e+00
  1.36811716e+00  1.37379812e+00  1.37702838e+00  1.37765164e+00
  1.39912194e+00  1.39929335e+00  1.39958524e+00  1.40104108e+00
  1.40778262e+00  1.40910980e+00  1.40933600e+00  1.40947972e+00
  1.41508881e+00  1.41583134e+00  1.42140099e+00  1.42892815e+00
  1.43496744e+00  1.43629245e+00  1.43661250e+00  1.43667624e+00
  1.44600754e+00  1.44644806e+00  1.44758224e+00  1.45497777e+00
  1.46209556e+00  1.46751822e+00  1.46765719e+00  1.47014826e+00
  1.47088474e+00  1.49718607e+00  1.49770385e+00  1.49804475e+00
  1.50739650e+00  1.51397047e+00  1.51644357e+00  1.52046448e+00
  1.52070425e+00  1.52268206e+00  1.52456682e+00  1.53105549e+00
  1.53164660e+00  1.54090893e+00  1.54261684e+00  1.54570564e+00
  1.54603060e+00  1.55280328e+00  1.55930990e+00  1.57267956e+00
  1.57674930e+00  1.57932416e+00  1.57966294e+00  1.59315714e+00
  1.59423187e+00  1.60063631e+00  1.60583750e+00  1.60614608e+00
  1.61170221e+00  1.62700241e+00  1.62803786e+00  1.62945446e+00
  1.63345069e+00  1.63367328e+00  1.63438378e+00  1.63870210e+00
  1.64357208e+00  1.66023349e+00  1.66673273e+00  1.66725140e+00
  1.67224076e+00  1.68022484e+00  1.68063803e+00  1.68246025e+00
  1.72039285e+00  1.72537656e+00  1.72946814e+00  1.73023634e+00
  1.74366534e+00  1.74486915e+00  1.77666306e+00  1.77720811e+00
  1.77794885e+00  1.78078049e+00  1.78261013e+00  1.78762237e+00
  1.79184867e+00  1.79455366e+00  1.80123091e+00  1.80313501e+00
  1.82331228e+00  1.82376699e+00  1.82660864e+00  1.85053714e+00
  1.85399735e+00  1.85694509e+00  1.85867933e+00  1.87538605e+00
  1.87740343e+00  1.88029569e+00  1.88184217e+00  1.89149944e+00
  1.89939665e+00  1.90084942e+00  1.94023395e+00  1.95061428e+00
  1.97215178e+00  1.97352688e+00  1.97604450e+00  2.00104153e+00
  2.00129788e+00  2.00644281e+00  2.02722263e+00  2.03592458e+00
  2.04808153e+00  2.04895347e+00  2.04941607e+00  2.05640879e+00
  2.06496117e+00  2.06905795e+00  2.09239889e+00  2.09284207e+00
  2.09842274e+00  2.12524474e+00  2.12677283e+00  2.13833870e+00
  2.17400552e+00  2.17560559e+00  2.19039848e+00  2.19189311e+00
  2.20588253e+00  2.21460323e+00  2.22901540e+00  2.23288946e+00
  2.23587760e+00  2.23925417e+00  2.25752852e+00  2.26420576e+00
  2.26479097e+00  2.26555849e+00  2.27425298e+00  2.27943893e+00
  2.28305701e+00  2.29225323e+00  2.29395646e+00  2.29701076e+00
  2.31285779e+00  2.31488081e+00  2.33739730e+00  2.33758299e+00
  2.33912433e+00  2.34209042e+00  2.34662650e+00  2.35053334e+00
  2.35135826e+00  2.35210401e+00  2.35387262e+00  2.37360016e+00
  2.37501411e+00  2.39452528e+00  2.41741503e+00  2.41786747e+00
  2.43354348e+00  2.43777606e+00  2.43820932e+00  2.45581922e+00
  2.47064957e+00  2.48249231e+00  2.49017232e+00  2.49429995e+00
  2.49450972e+00  2.49575442e+00  2.51634558e+00  2.52095867e+00
  2.52165032e+00  2.52957773e+00  2.53153402e+00  2.53605657e+00
  2.54034875e+00  2.54324196e+00  2.54566956e+00  2.57091922e+00
  2.61200441e+00  2.63203857e+00  2.63353991e+00  2.64229785e+00
  2.64317165e+00  2.64467710e+00  2.64550912e+00  2.67271266e+00
  2.68546147e+00  2.68654928e+00  2.73804089e+00  2.73906112e+00
  2.76189600e+00  2.76743924e+00  2.80166956e+00  2.80218624e+00
  2.86098241e+00  2.92860144e+00  2.94859900e+00  2.94985494e+00
  2.95210622e+00  2.95379929e+00  2.97205158e+00  2.97380931e+00
  2.98372976e+00  2.98508378e+00  3.00517560e+00  3.00532136e+00
  3.02737206e+00  3.04942301e+00  3.05265742e+00  3.06043640e+00
  3.06062665e+00  3.06472929e+00  3.06668291e+00  3.06860331e+00
  3.07025876e+00  3.08026179e+00  3.08170625e+00  3.09692782e+00
  3.10427799e+00  3.13269081e+00  3.13308152e+00  3.13597124e+00
  3.15390677e+00  3.17650985e+00  3.21387313e+00  3.21823422e+00
  3.22202894e+00  3.24154672e+00  3.24259477e+00  3.24476949e+00
  3.24578178e+00  3.25669447e+00  3.25758747e+00  3.26428945e+00
  3.27170863e+00  3.29327529e+00  3.29425744e+00  3.31685377e+00
  3.31774939e+00  3.34769034e+00  3.34954475e+00  3.39802408e+00
  3.49900970e+00  3.49970568e+00  3.51626663e+00  3.52744042e+00
  3.54002912e+00  3.54068631e+00  3.55457160e+00  3.55501850e+00
  3.56692746e+00  3.56712768e+00  3.57336306e+00  3.57406260e+00
  3.57792743e+00  3.57877545e+00  3.59220235e+00  3.59617958e+00
  3.60314459e+00  3.60366294e+00  3.61285298e+00  3.61528028e+00
  3.65421239e+00  3.65508726e+00  3.66700911e+00  3.66875303e+00
  3.68938252e+00  3.69944440e+00  3.73221328e+00  3.73270448e+00
  3.78320811e+00  3.78438709e+00  3.78695897e+00  3.78807769e+00
  3.80370045e+00  3.80796484e+00  3.81811261e+00  3.81828268e+00
  3.94458737e+00  3.99190943e+00  4.00096332e+00  4.00735563e+00
  4.00809214e+00  4.00932570e+00  4.01049678e+00  4.01296877e+00
  4.01540663e+00  4.03841002e+00  4.04161273e+00  4.04268668e+00
  4.05177402e+00  4.05414002e+00  4.05481413e+00  4.06805540e+00
  4.11843992e+00  4.12509497e+00  4.18439251e+00  4.18804403e+00
  4.30344642e+00  4.30529250e+00  4.30774015e+00  4.32058735e+00
  4.66838591e+00  4.67017338e+00  4.68232562e+00  4.68242912e+00
  4.77572474e+00  4.77815551e+00  4.79438774e+00  4.79762468e+00
  4.82257156e+00  4.83164562e+00  4.83568222e+00  4.83610807e+00
  4.90571484e+00  4.91119922e+00  4.91161837e+00  4.91339402e+00
  4.91859558e+00  4.92288454e+00  4.93844526e+00  4.93929748e+00
  5.03359388e+00  5.03385959e+00  5.06023990e+00  5.06091495e+00
  5.07209829e+00  5.07503453e+00  5.15955994e+00  5.16397188e+00
  5.21878911e+00  5.22048687e+00  5.27884347e+00  5.28233965e+00
  5.30771531e+00  5.30788193e+00  5.35458548e+00  5.35698201e+00
  5.71622849e+00  5.73174686e+00  5.81361818e+00  5.81417597e+00
  6.14898633e+00  6.15569204e+00  6.15598292e+00  6.16182370e+00
  6.24995039e+00  6.25017966e+00  6.25826593e+00  6.27386108e+00
  6.30122945e+00  6.30182662e+00  6.32019873e+00  6.33782272e+00
  6.35875632e+00  6.37742147e+00  6.39291880e+00  6.39430660e+00
  6.39614079e+00  6.45368086e+00  6.45673676e+00  6.46459924e+00
  6.49468032e+00  6.50406501e+00  6.51791065e+00  6.51816431e+00
  8.59910057e+00  8.59962129e+00  8.59992282e+00  8.59998163e+00
  8.60132879e+00  8.60136882e+00  8.60189921e+00  8.60191122e+00
  8.60220418e+00  8.60239305e+00  8.60263617e+00  8.60291422e+00
  8.60327730e+00  8.60331674e+00  8.60372874e+00  8.60378180e+00
  8.60389893e+00  8.60400498e+00  8.60404325e+00  8.60467107e+00
  8.60513850e+00  8.60674359e+00  8.60687786e+00  8.60855182e+00
  8.60868572e+00  8.60880550e+00  8.60977623e+00  8.61145067e+00
  8.61353167e+00  8.61370480e+00  8.61776830e+00  8.61783585e+00
  8.61871205e+00  8.61947936e+00  8.61958819e+00  8.62666189e+00
  8.76650276e+00  8.77909058e+00  8.78155717e+00  8.79583837e+00
  8.79627290e+00  8.80906273e+00  8.80987122e+00  8.81197424e+00
  8.81812826e+00  8.81817492e+00  8.81824378e+00  8.82319606e+00
  8.84209607e+00  8.84491771e+00  8.86059970e+00  8.86725446e+00
  8.87855225e+00  8.87856621e+00  8.89840349e+00  8.91059804e+00
  8.91131123e+00  8.94651154e+00  8.94761585e+00  8.96158971e+00
  9.02139603e+00  9.02878998e+00  9.05020159e+00  9.05242047e+00
  9.60490518e+00  9.60536507e+00  9.62335808e+00  9.65458441e+00
  9.77056568e+00  9.78234909e+00  9.78408736e+00  9.98922439e+00
  1.52287813e+01  1.52864246e+01  1.52877025e+01  1.53196256e+01
  1.53357224e+01  1.53713998e+01  1.53978735e+01  1.54000490e+01
  1.55190645e+01  1.55220350e+01  1.55365392e+01  1.55524024e+01
  2.32741212e+01  2.34295396e+01  2.34309534e+01  2.35263674e+01
  4.03550696e+01  4.03653892e+01  4.03742553e+01  4.03745077e+01
  6.80456214e+01  6.80460742e+01  6.80596153e+01  6.80850776e+01
  6.81795338e+01  6.81916855e+01  6.81929071e+01  6.83423580e+01
  1.03439989e+02  1.03484057e+02  1.03485131e+02  1.03526252e+02
  1.03533364e+02  1.03547886e+02  1.03569172e+02  1.03571118e+02
  1.03688551e+02  1.03690982e+02  1.03710904e+02  1.03726862e+02
  2.56320670e+02  2.56465871e+02  2.56467357e+02  2.56550335e+02
  2.97246433e+02  2.97246844e+02  2.97257591e+02  2.97281617e+02
  2.97361576e+02  2.97371579e+02  2.97372605e+02  2.97497261e+02
  1.34017834e+03  1.34017879e+03  1.34018973e+03  1.34021377e+03
  1.34029628e+03  1.34030674e+03  1.34030780e+03  1.34043787e+03
  1.65729090e+03  1.65744308e+03  1.65744467e+03  1.65753095e+03]
  beta  mo_energy =
[-2.57321281e+02 -2.57321257e+02 -2.57321211e+02 -2.57321149e+02
 -8.84778083e+01 -8.84777360e+01 -8.84775969e+01 -8.84773681e+01
 -8.84474478e+01 -8.84473909e+01 -8.84473872e+01 -8.84470665e+01
 -3.03271871e+01 -3.03271602e+01 -3.03270851e+01 -3.03270099e+01
 -2.58833025e+01 -2.58832763e+01 -2.58832318e+01 -2.58831641e+01
 -2.58830575e+01 -2.58830391e+01 -2.58830266e+01 -2.58830016e+01
 -2.58829927e+01 -2.58829534e+01 -2.58829249e+01 -2.58828944e+01
 -1.01909350e+01 -1.01908760e+01 -1.01902047e+01 -1.01901837e+01
 -7.84330350e+00 -7.84322678e+00 -7.84307877e+00 -7.84283638e+00
 -7.81171030e+00 -7.81164725e+00 -7.81162313e+00 -7.81129043e+00
 -5.81439588e+00 -5.81432143e+00 -5.81418983e+00 -5.81395080e+00
 -5.81298981e+00 -5.81291541e+00 -5.81279047e+00 -5.81277865e+00
 -5.81271099e+00 -5.81253890e+00 -5.81253792e+00 -5.81229743e+00
 -5.78294782e+00 -5.78288077e+00 -5.78287189e+00 -5.78251284e+00
 -5.78228281e+00 -5.78222291e+00 -5.78217528e+00 -5.78186592e+00
 -5.78079376e+00 -5.78073281e+00 -5.78072403e+00 -5.78039958e+00
 -3.60089082e+00 -3.60069677e+00 -3.60061943e+00 -3.60053009e+00
 -2.35770269e+00 -2.35617422e+00 -2.35603236e+00 -2.35522123e+00
 -2.35208988e+00 -2.35187963e+00 -2.35133831e+00 -2.35123351e+00
 -2.35117036e+00 -2.35076767e+00 -2.35066234e+00 -2.35023702e+00
 -8.09232784e-01 -8.04597705e-01 -8.02727835e-01 -8.02267001e-01
 -7.93663447e-01 -7.69430016e-01 -7.69081762e-01 -7.66471623e-01
 -6.71394540e-01 -6.71260950e-01 -6.69233027e-01 -6.68905663e-01
 -5.18054986e-01 -4.97149212e-01 -4.92872813e-01 -4.92027976e-01
 -4.89749706e-01 -4.84351453e-01 -4.82375650e-01 -4.78633341e-01
 -4.78310773e-01 -4.77937825e-01 -4.73191409e-01 -4.72304001e-01
 -4.68059845e-01 -4.66968444e-01 -4.64750289e-01 -4.64680910e-01
 -4.60953866e-01 -4.53537956e-01 -4.53350688e-01 -4.50718160e-01
 -4.45816962e-01 -4.45702442e-01 -4.39668166e-01 -4.35595556e-01
 -4.29864123e-01 -4.23886571e-01 -4.13487093e-01 -4.13185402e-01
 -4.10139639e-01 -4.07778816e-01 -4.03615240e-01 -4.03100490e-01
 -4.02835433e-01 -3.80168246e-01 -3.75155490e-01 -3.67340171e-01
 -3.67161496e-01 -3.65926969e-01 -3.24733201e-01 -3.24312792e-01
 -3.23875169e-01 -3.15461452e-01 -3.14780708e-01 -3.13917621e-01
 -2.98425936e-01 -2.83495757e-01 -2.83241938e-01 -2.80249692e-01
 -2.80135423e-01 -2.79681824e-01 -2.73174120e-01 -2.73059168e-01
 -9.53584289e-02 -9.24300876e-02 -8.48380140e-02 -8.24883957e-02
 -8.22600773e-02 -4.07419413e-02 -4.03805759e-02 -3.99857057e-02
 -3.60800617e-02 -2.61164952e-02 -2.42015017e-02 -2.34121784e-02
  1.23425561e-03  1.68711527e-03  1.97586505e-03  2.91645713e-03
  1.02202699e-02  2.29900461e-02  2.35873811e-02  3.88105145e-02
  3.93310171e-02  4.18050865e-02  4.86395648e-02  5.15986491e-02
  6.29888246e-02  6.65865035e-02  6.72913653e-02  8.17091254e-02
  8.26019455e-02  8.32583077e-02  9.13942673e-02  9.14797341e-02
  1.02134279e-01  1.06897641e-01  1.16286455e-01  1.17010733e-01
  1.18604343e-01  1.32779451e-01  1.35037170e-01  1.40375334e-01
  1.50083533e-01  1.58968790e-01  1.59184005e-01  1.59988567e-01
  1.60554483e-01  1.63346900e-01  1.64378670e-01  1.68693294e-01
  1.71127022e-01  1.71500459e-01  1.71584957e-01  1.73242478e-01
  1.74242273e-01  1.76606507e-01  1.76773228e-01  1.82306792e-01
  1.82644505e-01  1.90676107e-01  1.97775420e-01  2.02023966e-01
  2.09600270e-01  2.13048620e-01  2.13547607e-01  2.22021909e-01
  2.22713110e-01  2.22845278e-01  2.25146194e-01  2.26622095e-01
  2.54261707e-01  2.54639303e-01  2.68337097e-01  2.72098620e-01
  2.79424381e-01  2.79657029e-01  2.89535550e-01  2.99099630e-01
  3.01137460e-01  3.01932725e-01  3.06747861e-01  3.17284637e-01
  3.17775579e-01  3.19273862e-01  3.34386102e-01  3.48291421e-01
  3.48818362e-01  3.67265842e-01  3.69074880e-01  3.76583059e-01
  3.77338777e-01  3.80395491e-01  3.80899626e-01  3.87882335e-01
  3.89144129e-01  3.89367937e-01  4.00919006e-01  4.05815060e-01
  4.06029376e-01  4.13383369e-01  4.14257054e-01  4.14653631e-01
  4.17360427e-01  4.27142222e-01  4.27832346e-01  4.48945257e-01
  4.56721650e-01  4.56896553e-01  4.57074678e-01  4.62922215e-01
  4.67973888e-01  4.71207803e-01  4.71555461e-01  4.84851474e-01
  5.13293766e-01  5.26703715e-01  5.34717425e-01  5.35416697e-01
  5.42776799e-01  5.55521168e-01  5.57265715e-01  5.57976071e-01
  5.74057933e-01  5.74442767e-01  5.86975645e-01  5.90642961e-01
  5.91707626e-01  5.91873466e-01  6.02562665e-01  6.06084811e-01
  6.09950202e-01  6.13439281e-01  6.13768862e-01  6.44104226e-01
  6.53797168e-01  6.68513049e-01  6.68873128e-01  6.81878562e-01
  6.82415258e-01  6.83757080e-01  6.96915216e-01  7.07723404e-01
  7.16747622e-01  7.48604178e-01  7.50153369e-01  7.55733738e-01
  7.71524718e-01  7.87232598e-01  7.87867425e-01  7.89516819e-01
  7.90243494e-01  7.92836057e-01  8.04271732e-01  8.10654331e-01
  8.11854659e-01  8.13060708e-01  8.13758370e-01  8.20685877e-01
  8.21234579e-01  8.27829649e-01  8.62870460e-01  8.63526529e-01
  8.68147835e-01  8.68550924e-01  8.76676030e-01  8.84742348e-01
  8.86857916e-01  8.88734815e-01  8.97465925e-01  8.98553978e-01
  8.98698736e-01  9.13759742e-01  9.17546033e-01  9.23604873e-01
  9.24056194e-01  9.30415724e-01  9.31090965e-01  9.32155781e-01
  9.39675353e-01  9.40059665e-01  9.64639613e-01  9.90070191e-01
  9.90583601e-01  9.93282798e-01  9.96665878e-01  1.02673719e+00
  1.03427811e+00  1.03923726e+00  1.04317021e+00  1.04339207e+00
  1.04401473e+00  1.05921482e+00  1.06150119e+00  1.07516607e+00
  1.07726488e+00  1.08434113e+00  1.08710225e+00  1.09177811e+00
  1.09428972e+00  1.09665018e+00  1.16732987e+00  1.18433232e+00
  1.18571618e+00  1.18833873e+00  1.20182798e+00  1.20239056e+00
  1.20636150e+00  1.20806586e+00  1.21076471e+00  1.21517359e+00
  1.22207140e+00  1.22592057e+00  1.27167436e+00  1.27227672e+00
  1.32686924e+00  1.32772510e+00  1.32852358e+00  1.33945002e+00
  1.34445396e+00  1.34662353e+00  1.34673800e+00  1.34842079e+00
  1.35377763e+00  1.36393194e+00  1.36644885e+00  1.36692000e+00
  1.36811716e+00  1.37379812e+00  1.37702838e+00  1.37765164e+00
  1.39912194e+00  1.39929335e+00  1.39958524e+00  1.40104108e+00
  1.40778262e+00  1.40910980e+00  1.40933600e+00  1.40947972e+00
  1.41508881e+00  1.41583134e+00  1.42140099e+00  1.42892815e+00
  1.43496744e+00  1.43629245e+00  1.43661250e+00  1.43667624e+00
  1.44600754e+00  1.44644806e+00  1.44758224e+00  1.45497777e+00
  1.46209556e+00  1.46751822e+00  1.46765719e+00  1.47014826e+00
  1.47088474e+00  1.49718607e+00  1.49770385e+00  1.49804475e+00
  1.50739650e+00  1.51397047e+00  1.51644357e+00  1.52046448e+00
  1.52070425e+00  1.52268206e+00  1.52456682e+00  1.53105549e+00
  1.53164660e+00  1.54090893e+00  1.54261684e+00  1.54570564e+00
  1.54603060e+00  1.55280328e+00  1.55930990e+00  1.57267956e+00
  1.57674930e+00  1.57932416e+00  1.57966294e+00  1.59315714e+00
  1.59423187e+00  1.60063631e+00  1.60583750e+00  1.60614608e+00
  1.61170221e+00  1.62700241e+00  1.62803786e+00  1.62945446e+00
  1.63345069e+00  1.63367328e+00  1.63438378e+00  1.63870210e+00
  1.64357208e+00  1.66023349e+00  1.66673273e+00  1.66725140e+00
  1.67224076e+00  1.68022484e+00  1.68063803e+00  1.68246025e+00
  1.72039285e+00  1.72537656e+00  1.72946814e+00  1.73023634e+00
  1.74366534e+00  1.74486915e+00  1.77666306e+00  1.77720811e+00
  1.77794885e+00  1.78078049e+00  1.78261013e+00  1.78762237e+00
  1.79184867e+00  1.79455366e+00  1.80123091e+00  1.80313501e+00
  1.82331228e+00  1.82376699e+00  1.82660864e+00  1.85053714e+00
  1.85399735e+00  1.85694509e+00  1.85867933e+00  1.87538605e+00
  1.87740343e+00  1.88029569e+00  1.88184217e+00  1.89149944e+00
  1.89939665e+00  1.90084942e+00  1.94023395e+00  1.95061428e+00
  1.97215178e+00  1.97352688e+00  1.97604450e+00  2.00104153e+00
  2.00129788e+00  2.00644281e+00  2.02722263e+00  2.03592458e+00
  2.04808153e+00  2.04895347e+00  2.04941607e+00  2.05640879e+00
  2.06496117e+00  2.06905795e+00  2.09239889e+00  2.09284207e+00
  2.09842274e+00  2.12524474e+00  2.12677283e+00  2.13833870e+00
  2.17400552e+00  2.17560559e+00  2.19039848e+00  2.19189311e+00
  2.20588253e+00  2.21460323e+00  2.22901540e+00  2.23288946e+00
  2.23587760e+00  2.23925417e+00  2.25752852e+00  2.26420576e+00
  2.26479097e+00  2.26555849e+00  2.27425298e+00  2.27943893e+00
  2.28305701e+00  2.29225323e+00  2.29395646e+00  2.29701076e+00
  2.31285779e+00  2.31488081e+00  2.33739730e+00  2.33758299e+00
  2.33912433e+00  2.34209042e+00  2.34662650e+00  2.35053334e+00
  2.35135826e+00  2.35210401e+00  2.35387262e+00  2.37360016e+00
  2.37501411e+00  2.39452528e+00  2.41741503e+00  2.41786747e+00
  2.43354348e+00  2.43777606e+00  2.43820932e+00  2.45581922e+00
  2.47064957e+00  2.48249231e+00  2.49017232e+00  2.49429995e+00
  2.49450972e+00  2.49575442e+00  2.51634558e+00  2.52095867e+00
  2.52165032e+00  2.52957773e+00  2.53153402e+00  2.53605657e+00
  2.54034875e+00  2.54324196e+00  2.54566956e+00  2.57091922e+00
  2.61200441e+00  2.63203857e+00  2.63353991e+00  2.64229785e+00
  2.64317165e+00  2.64467710e+00  2.64550912e+00  2.67271266e+00
  2.68546147e+00  2.68654928e+00  2.73804089e+00  2.73906112e+00
  2.76189600e+00  2.76743924e+00  2.80166956e+00  2.80218624e+00
  2.86098241e+00  2.92860144e+00  2.94859900e+00  2.94985494e+00
  2.95210622e+00  2.95379929e+00  2.97205158e+00  2.97380931e+00
  2.98372976e+00  2.98508378e+00  3.00517560e+00  3.00532136e+00
  3.02737206e+00  3.04942301e+00  3.05265742e+00  3.06043640e+00
  3.06062665e+00  3.06472929e+00  3.06668291e+00  3.06860331e+00
  3.07025876e+00  3.08026179e+00  3.08170625e+00  3.09692782e+00
  3.10427799e+00  3.13269081e+00  3.13308152e+00  3.13597124e+00
  3.15390677e+00  3.17650985e+00  3.21387313e+00  3.21823422e+00
  3.22202894e+00  3.24154672e+00  3.24259477e+00  3.24476949e+00
  3.24578178e+00  3.25669447e+00  3.25758747e+00  3.26428945e+00
  3.27170863e+00  3.29327529e+00  3.29425744e+00  3.31685377e+00
  3.31774939e+00  3.34769034e+00  3.34954475e+00  3.39802408e+00
  3.49900970e+00  3.49970568e+00  3.51626663e+00  3.52744042e+00
  3.54002912e+00  3.54068631e+00  3.55457160e+00  3.55501850e+00
  3.56692746e+00  3.56712768e+00  3.57336306e+00  3.57406260e+00
  3.57792743e+00  3.57877545e+00  3.59220235e+00  3.59617958e+00
  3.60314459e+00  3.60366294e+00  3.61285298e+00  3.61528028e+00
  3.65421239e+00  3.65508726e+00  3.66700911e+00  3.66875303e+00
  3.68938252e+00  3.69944440e+00  3.73221328e+00  3.73270448e+00
  3.78320811e+00  3.78438709e+00  3.78695897e+00  3.78807769e+00
  3.80370045e+00  3.80796484e+00  3.81811261e+00  3.81828268e+00
  3.94458737e+00  3.99190943e+00  4.00096332e+00  4.00735563e+00
  4.00809214e+00  4.00932570e+00  4.01049678e+00  4.01296877e+00
  4.01540663e+00  4.03841002e+00  4.04161273e+00  4.04268668e+00
  4.05177402e+00  4.05414002e+00  4.05481413e+00  4.06805540e+00
  4.11843992e+00  4.12509497e+00  4.18439251e+00  4.18804403e+00
  4.30344642e+00  4.30529250e+00  4.30774015e+00  4.32058735e+00
  4.66838591e+00  4.67017338e+00  4.68232562e+00  4.68242912e+00
  4.77572474e+00  4.77815551e+00  4.79438774e+00  4.79762468e+00
  4.82257156e+00  4.83164562e+00  4.83568222e+00  4.83610807e+00
  4.90571484e+00  4.91119922e+00  4.91161837e+00  4.91339402e+00
  4.91859558e+00  4.92288454e+00  4.93844526e+00  4.93929748e+00
  5.03359388e+00  5.03385959e+00  5.06023990e+00  5.06091495e+00
  5.07209829e+00  5.07503453e+00  5.15955994e+00  5.16397188e+00
  5.21878911e+00  5.22048687e+00  5.27884347e+00  5.28233965e+00
  5.30771531e+00  5.30788193e+00  5.35458548e+00  5.35698201e+00
  5.71622849e+00  5.73174686e+00  5.81361818e+00  5.81417597e+00
  6.14898633e+00  6.15569204e+00  6.15598292e+00  6.16182370e+00
  6.24995039e+00  6.25017966e+00  6.25826593e+00  6.27386108e+00
  6.30122945e+00  6.30182662e+00  6.32019873e+00  6.33782272e+00
  6.35875632e+00  6.37742147e+00  6.39291880e+00  6.39430660e+00
  6.39614079e+00  6.45368086e+00  6.45673676e+00  6.46459924e+00
  6.49468032e+00  6.50406501e+00  6.51791065e+00  6.51816431e+00
  8.59910057e+00  8.59962129e+00  8.59992282e+00  8.59998163e+00
  8.60132879e+00  8.60136882e+00  8.60189921e+00  8.60191122e+00
  8.60220418e+00  8.60239305e+00  8.60263617e+00  8.60291422e+00
  8.60327730e+00  8.60331674e+00  8.60372874e+00  8.60378180e+00
  8.60389893e+00  8.60400498e+00  8.60404325e+00  8.60467107e+00
  8.60513850e+00  8.60674359e+00  8.60687786e+00  8.60855182e+00
  8.60868572e+00  8.60880550e+00  8.60977623e+00  8.61145067e+00
  8.61353167e+00  8.61370480e+00  8.61776830e+00  8.61783585e+00
  8.61871205e+00  8.61947936e+00  8.61958819e+00  8.62666189e+00
  8.76650276e+00  8.77909058e+00  8.78155717e+00  8.79583837e+00
  8.79627290e+00  8.80906273e+00  8.80987122e+00  8.81197424e+00
  8.81812826e+00  8.81817492e+00  8.81824378e+00  8.82319606e+00
  8.84209607e+00  8.84491771e+00  8.86059970e+00  8.86725446e+00
  8.87855225e+00  8.87856621e+00  8.89840349e+00  8.91059804e+00
  8.91131123e+00  8.94651154e+00  8.94761585e+00  8.96158971e+00
  9.02139603e+00  9.02878998e+00  9.05020159e+00  9.05242047e+00
  9.60490518e+00  9.60536507e+00  9.62335808e+00  9.65458441e+00
  9.77056568e+00  9.78234909e+00  9.78408736e+00  9.98922439e+00
  1.52287813e+01  1.52864246e+01  1.52877025e+01  1.53196256e+01
  1.53357224e+01  1.53713998e+01  1.53978735e+01  1.54000490e+01
  1.55190645e+01  1.55220350e+01  1.55365392e+01  1.55524024e+01
  2.32741212e+01  2.34295396e+01  2.34309534e+01  2.35263674e+01
  4.03550696e+01  4.03653892e+01  4.03742553e+01  4.03745077e+01
  6.80456214e+01  6.80460742e+01  6.80596153e+01  6.80850776e+01
  6.81795338e+01  6.81916855e+01  6.81929071e+01  6.83423580e+01
  1.03439989e+02  1.03484057e+02  1.03485131e+02  1.03526252e+02
  1.03533364e+02  1.03547886e+02  1.03569172e+02  1.03571118e+02
  1.03688551e+02  1.03690982e+02  1.03710904e+02  1.03726862e+02
  2.56320670e+02  2.56465871e+02  2.56467357e+02  2.56550335e+02
  2.97246433e+02  2.97246844e+02  2.97257591e+02  2.97281617e+02
  2.97361576e+02  2.97371579e+02  2.97372605e+02  2.97497261e+02
  1.34017834e+03  1.34017879e+03  1.34018973e+03  1.34021377e+03
  1.34029628e+03  1.34030674e+03  1.34030780e+03  1.34043787e+03
  1.65729090e+03  1.65744308e+03  1.65744467e+03  1.65753095e+03]
multiplicity <S^2> = 90  2S+1 = 19
nelec by numeric integration = [144.00009304 126.00005774]
    CPU time for vxc    158.21 sec, wall time      4.46 sec
    CPU time for vj and vk    874.15 sec, wall time     24.68 sec
E1 = -22085.563547138336  Ecoul = 9081.234302695639  Exc = -468.38280801682583
cycle= 1 E= -8434.64543344797  delta_E= 13.8  |g|= 6.28  |ddm|= 4.35
    CPU time for cycle= 1   1044.85 sec, wall time     29.72 sec
diis-norm(errvec)=13.8589
diis-c [-192.06977422    1.        ]
  alpha nocc = 144  HOMO = 0.471579133548038  LUMO = 0.476073254173338
  beta  nocc = 126  HOMO = 0.426453449414782  LUMO = 0.427610376636565

WARN: system HOMO 0.496660665645148 >= system LUMO 0.427610376636565

  alpha mo_energy =
[-2.53415959e+02 -2.53413677e+02 -2.53412923e+02 -2.53410625e+02
 -8.83974609e+01 -8.83941727e+01 -8.83935415e+01 -8.83931038e+01
 -8.76150904e+01 -8.76115733e+01 -8.76086553e+01 -8.76070366e+01
 -2.65624348e+01 -2.65601844e+01 -2.65593726e+01 -2.65571609e+01
 -2.20939825e+01 -2.20917598e+01 -2.20908304e+01 -2.20885771e+01
 -2.20870767e+01 -2.20864273e+01 -2.20847751e+01 -2.20841711e+01
 -2.20840468e+01 -2.20833962e+01 -2.20818013e+01 -2.20812340e+01
 -9.46967107e+00 -9.46895041e+00 -9.46698870e+00 -9.46579306e+00
 -7.67589413e+00 -7.67292535e+00 -7.67209693e+00 -7.67186712e+00
 -6.93015096e+00 -6.92691281e+00 -6.92417372e+00 -6.92266689e+00
 -5.65801563e+00 -5.65502597e+00 -5.65419343e+00 -5.65396122e+00
 -5.65352423e+00 -5.65053747e+00 -5.64975674e+00 -5.64945670e+00
 -5.64808858e+00 -5.64502281e+00 -5.64415085e+00 -5.64396740e+00
 -4.90571674e+00 -4.90369368e+00 -4.90243659e+00 -4.90039260e+00
 -4.89973108e+00 -4.89821490e+00 -4.89754520e+00 -4.89601298e+00
 -4.89532373e+00 -4.89205500e+00 -4.88931290e+00 -4.88779881e+00
 -7.31245775e-01 -7.29644121e-01 -7.28872218e-01 -7.26979933e-01
 -5.18448088e-01 -5.17295728e-01 -5.16375731e-01 -5.15544946e-01
 -3.49881800e-01 -3.49274893e-01 -3.47141755e-01 -3.47133098e-01
 -1.34622039e-01 -1.34353357e-01 -1.32351744e-01 -1.31896554e-01
 -1.21520888e-01 -1.20685407e-01 -1.18111549e-01 -1.17944614e-01
 -1.16176713e-01 -1.15239118e-01 -1.05639888e-01 -1.04764705e-01
 -4.16014578e-02 -4.07765249e-02 -3.54412018e-02 -3.53826615e-02
  1.12955810e-02  1.30856040e-02  1.47113975e-02  1.52083560e-02
  6.83230957e-02  7.03813547e-02  7.23624271e-02  7.34480372e-02
  2.10360237e-01  2.12117830e-01  2.22632589e-01  2.22831429e-01
  2.47889555e-01  2.50123700e-01  2.52218006e-01  2.52393651e-01
  3.14931795e-01  3.21359581e-01  3.22459823e-01  3.23150542e-01
  3.33750040e-01  3.34234659e-01  3.45379705e-01  3.57996666e-01
  3.71904241e-01  3.72202775e-01  3.72643082e-01  3.73383768e-01
  3.77705472e-01  3.87854555e-01  3.89307447e-01  3.90290217e-01
  3.97674667e-01  3.99218715e-01  3.99781604e-01  4.05525399e-01
  4.07707300e-01  4.12827493e-01  4.20376531e-01  4.20905347e-01
  4.21440708e-01  4.25372920e-01  4.25606226e-01  4.28786578e-01
  4.39935920e-01  4.40346410e-01  4.46559506e-01  4.47377155e-01
  4.47861891e-01  4.59172372e-01  4.59272819e-01  4.71579134e-01
  4.76073254e-01  4.78546378e-01  4.78928703e-01  4.89269314e-01
  4.90087326e-01  4.90632509e-01  4.98176790e-01  5.01114667e-01
  5.01686420e-01  5.03732327e-01  5.04033853e-01  5.08024333e-01
  5.19023848e-01  5.22504228e-01  5.33196452e-01  5.33563569e-01
  5.47817990e-01  5.55503066e-01  5.56340147e-01  5.57214644e-01
  5.57819237e-01  5.67588787e-01  5.69512961e-01  5.69822752e-01
  5.84681394e-01  5.84844909e-01  5.94754473e-01  5.95812403e-01
  5.97882109e-01  5.99126313e-01  5.99507469e-01  6.05981136e-01
  6.07064961e-01  6.20656737e-01  6.28834514e-01  6.41838297e-01
  6.42291454e-01  6.49601401e-01  6.88168394e-01  7.00021817e-01
  7.00488917e-01  7.01441412e-01  7.04414670e-01  7.06073698e-01
  7.13934330e-01  7.15003164e-01  7.50218572e-01  7.52655119e-01
  7.54678547e-01  7.55878152e-01  7.82902116e-01  7.85268319e-01
  7.85779288e-01  8.08369993e-01  8.21236375e-01  8.22173566e-01
  8.30009279e-01  8.33907523e-01  8.34199301e-01  8.36747754e-01
  8.61640366e-01  8.61969081e-01  8.67579286e-01  8.67980174e-01
  8.71527839e-01  8.78150683e-01  8.78611221e-01  8.82095122e-01
  8.90110603e-01  8.91005206e-01  9.06294775e-01  9.08308436e-01
  9.13543162e-01  9.15466156e-01  9.16563280e-01  9.19508422e-01
  9.38857923e-01  9.38956342e-01  9.49246972e-01  9.91708741e-01
  9.96119200e-01  1.00211197e+00  1.00959843e+00  1.00981977e+00
  1.04842732e+00  1.05916549e+00  1.08327515e+00  1.09360201e+00
  1.09668920e+00  1.09693062e+00  1.10139316e+00  1.10208660e+00
  1.11952489e+00  1.12044424e+00  1.12460271e+00  1.12513331e+00
  1.13709818e+00  1.13757332e+00  1.14289438e+00  1.14358976e+00
  1.16008908e+00  1.16102277e+00  1.16365644e+00  1.17224347e+00
  1.17459611e+00  1.17537203e+00  1.17690175e+00  1.18028099e+00
  1.18226678e+00  1.18501117e+00  1.19332765e+00  1.20328669e+00
  1.20388176e+00  1.22710483e+00  1.22777874e+00  1.23095256e+00
  1.23238276e+00  1.23330010e+00  1.23387957e+00  1.25009460e+00
  1.25098933e+00  1.25539394e+00  1.26378041e+00  1.26415055e+00
  1.27516903e+00  1.29149767e+00  1.29583001e+00  1.31211723e+00
  1.35046437e+00  1.35290022e+00  1.37167421e+00  1.38064076e+00
  1.38172504e+00  1.38401950e+00  1.39967375e+00  1.42706265e+00
  1.42766217e+00  1.43927400e+00  1.44081899e+00  1.44364797e+00
  1.44659865e+00  1.45224548e+00  1.46481570e+00  1.46546094e+00
  1.47900610e+00  1.49055260e+00  1.50258924e+00  1.50268019e+00
  1.51264739e+00  1.52248326e+00  1.52427050e+00  1.52612057e+00
  1.52717775e+00  1.53628502e+00  1.53735667e+00  1.55079319e+00
  1.55661000e+00  1.56790314e+00  1.57705696e+00  1.57948738e+00
  1.57971580e+00  1.58078180e+00  1.58907337e+00  1.58923917e+00
  1.59639921e+00  1.60018242e+00  1.61012220e+00  1.61061454e+00
  1.61177692e+00  1.61858442e+00  1.64137076e+00  1.64255237e+00
  1.65906093e+00  1.65986501e+00  1.67516208e+00  1.67595032e+00
  1.67739418e+00  1.68947547e+00  1.69684340e+00  1.69726931e+00
  1.70363399e+00  1.71204419e+00  1.71264148e+00  1.71507214e+00
  1.73341818e+00  1.73771840e+00  1.74641667e+00  1.74716020e+00
  1.74819303e+00  1.74890442e+00  1.75363023e+00  1.75458078e+00
  1.75504827e+00  1.76336346e+00  1.76426381e+00  1.77193539e+00
  1.78767919e+00  1.78932273e+00  1.79485856e+00  1.80147663e+00
  1.82231641e+00  1.85996183e+00  1.86684403e+00  1.87509238e+00
  1.87641309e+00  1.88397197e+00  1.88468178e+00  1.88582005e+00
  1.89173003e+00  1.89375834e+00  1.89434296e+00  1.91293194e+00
  1.91575938e+00  1.91763902e+00  1.95366806e+00  1.95471980e+00
  1.98231477e+00  2.00122047e+00  2.00621721e+00  2.03924848e+00
  2.03956604e+00  2.04419321e+00  2.05505902e+00  2.05566663e+00
  2.07920697e+00  2.08002308e+00  2.08160453e+00  2.08732890e+00
  2.10603573e+00  2.10730663e+00  2.11788634e+00  2.12202152e+00
  2.12399487e+00  2.14716258e+00  2.14875560e+00  2.15676044e+00
  2.16001336e+00  2.19144823e+00  2.19283796e+00  2.20009891e+00
  2.21214510e+00  2.23724977e+00  2.23865332e+00  2.24084212e+00
  2.24141449e+00  2.24418441e+00  2.25486823e+00  2.25576809e+00
  2.26632978e+00  2.26746549e+00  2.26815600e+00  2.27268872e+00
  2.27290757e+00  2.28419243e+00  2.28553889e+00  2.29996812e+00
  2.31537882e+00  2.31678699e+00  2.32135913e+00  2.32166535e+00
  2.33225935e+00  2.33268827e+00  2.34269633e+00  2.34493110e+00
  2.34604771e+00  2.35749200e+00  2.35782710e+00  2.37010790e+00
  2.38406405e+00  2.38499312e+00  2.39033623e+00  2.39713389e+00
  2.39982632e+00  2.41258496e+00  2.41589133e+00  2.41668474e+00
  2.42056882e+00  2.42935515e+00  2.43676969e+00  2.43760516e+00
  2.43778643e+00  2.44415595e+00  2.46016249e+00  2.46061199e+00
  2.46477449e+00  2.46742240e+00  2.46827034e+00  2.47196232e+00
  2.47380845e+00  2.48274147e+00  2.48819414e+00  2.48985105e+00
  2.50025150e+00  2.50068623e+00  2.50494536e+00  2.51285985e+00
  2.51497913e+00  2.52861419e+00  2.53255123e+00  2.53388779e+00
  2.53433213e+00  2.53503559e+00  2.54548899e+00  2.55158691e+00
  2.57084612e+00  2.57379355e+00  2.57667027e+00  2.57713992e+00
  2.57829279e+00  2.58240902e+00  2.58285628e+00  2.58316491e+00
  2.58956137e+00  2.59872693e+00  2.60640481e+00  2.60837702e+00
  2.62049683e+00  2.63468269e+00  2.63595332e+00  2.63661604e+00
  2.64466630e+00  2.65539881e+00  2.66481835e+00  2.66895098e+00
  2.67173793e+00  2.67510872e+00  2.67853307e+00  2.68921887e+00
  2.71489706e+00  2.71663916e+00  2.71922562e+00  2.72321600e+00
  2.73689698e+00  2.73855328e+00  2.76450881e+00  2.76494820e+00
  2.77161113e+00  2.77273408e+00  2.77699742e+00  2.78749687e+00
  2.80258050e+00  2.80465003e+00  2.80860868e+00  2.81055919e+00
  2.81998167e+00  2.82126789e+00  2.82517708e+00  2.82670292e+00
  2.83881735e+00  2.85415033e+00  2.85530862e+00  2.85824012e+00
  2.86083524e+00  2.86286703e+00  2.92154027e+00  2.92300615e+00
  2.96492406e+00  2.96804333e+00  2.96958763e+00  2.98249073e+00
  2.98483427e+00  2.99090668e+00  2.99839314e+00  3.00521796e+00
  3.00842872e+00  3.02009588e+00  3.03464853e+00  3.03553662e+00
  3.03667193e+00  3.06822842e+00  3.07970857e+00  3.10411293e+00
  3.10535809e+00  3.10673943e+00  3.10727576e+00  3.13709265e+00
  3.13832661e+00  3.15786125e+00  3.16036022e+00  3.17743276e+00
  3.20827927e+00  3.21024913e+00  3.21376241e+00  3.28183906e+00
  3.28480273e+00  3.28811553e+00  3.29557350e+00  3.29657920e+00
  3.31415672e+00  3.31762461e+00  3.32335961e+00  3.32914697e+00
  3.35591857e+00  3.35981819e+00  3.36035217e+00  3.36217221e+00
  3.36292662e+00  3.43272640e+00  3.44263290e+00  3.44367704e+00
  3.45121890e+00  3.45365991e+00  3.45492007e+00  3.45684595e+00
  3.59581636e+00  3.60510970e+00  3.61799383e+00  3.61957643e+00
  3.62063829e+00  3.62100212e+00  3.65498561e+00  3.65545579e+00
  3.66190310e+00  3.66402362e+00  3.68854494e+00  3.68917791e+00
  3.85563255e+00  3.85627830e+00  3.86886199e+00  3.86960008e+00
  3.88556214e+00  3.88847656e+00  3.89025461e+00  3.89227758e+00
  3.89535727e+00  3.90672906e+00  3.91219845e+00  3.91274780e+00
  3.92536082e+00  3.92647370e+00  3.94645471e+00  3.94836565e+00
  3.96070397e+00  3.96198282e+00  3.96251382e+00  3.96515358e+00
  3.96864552e+00  3.97004876e+00  3.98486527e+00  3.98601738e+00
  3.98995899e+00  3.99065970e+00  4.05212549e+00  4.05449967e+00
  4.08445095e+00  4.09116234e+00  4.09266176e+00  4.09538569e+00
  4.10176979e+00  4.11077045e+00  4.11259309e+00  4.11570363e+00
  4.11728542e+00  4.12319648e+00  4.12693117e+00  4.15425518e+00
  4.16029097e+00  4.16489848e+00  4.16576807e+00  4.18773895e+00
  4.18915294e+00  4.21829782e+00  4.21941986e+00  4.23381226e+00
  4.23673042e+00  4.25183826e+00  4.25736816e+00  4.26681234e+00
  4.26716666e+00  4.29750186e+00  4.31783395e+00  4.32657163e+00
  4.32978442e+00  4.33028231e+00  4.33213310e+00  4.36302543e+00
  4.36633010e+00  4.36702187e+00  4.38153413e+00  4.38186310e+00
  4.39886938e+00  4.39971223e+00  4.40991648e+00  4.41622525e+00
  4.41655689e+00  4.41980723e+00  4.44009237e+00  4.46494735e+00
  4.46539608e+00  4.52045254e+00  4.52209769e+00  4.52277894e+00
  4.66691218e+00  4.70258254e+00  4.70343670e+00  4.70786300e+00
  5.01423551e+00  5.01682018e+00  5.02470764e+00  5.02518347e+00
  5.12815631e+00  5.13097740e+00  5.14409289e+00  5.14820149e+00
  5.15280176e+00  5.15578555e+00  5.15993244e+00  5.16069030e+00
  5.25445141e+00  5.25940109e+00  5.26100781e+00  5.26376534e+00
  5.28137124e+00  5.28519590e+00  5.30430422e+00  5.30476049e+00
  5.36784549e+00  5.36913656e+00  5.39577943e+00  5.39704061e+00
  5.40066311e+00  5.40443386e+00  5.40511186e+00  5.40786102e+00
  5.41528027e+00  5.42920447e+00  5.42951426e+00  5.43529285e+00
  5.43590925e+00  5.45429836e+00  5.47567277e+00  5.47856894e+00
  5.48924441e+00  5.50171203e+00  5.50456614e+00  5.53621159e+00
  5.57722289e+00  5.60059376e+00  5.60912405e+00  5.61036245e+00
  5.62427410e+00  5.62597270e+00  5.62644938e+00  5.65211271e+00
  5.66191899e+00  5.67952662e+00  5.68023952e+00  5.76272158e+00
  5.76450130e+00  5.78184565e+00  5.81229940e+00  5.81858239e+00
  6.11621129e+00  6.11947987e+00  6.12291266e+00  6.15731581e+00
  6.15907062e+00  6.22718311e+00  6.24255183e+00  6.28394654e+00
  6.28451601e+00  6.34263020e+00  6.34542553e+00  6.34589868e+00
  6.35089589e+00  6.35579314e+00  6.37140587e+00  6.41006576e+00
  6.41355735e+00  6.48602573e+00  6.48738644e+00  6.59787963e+00
  6.63106489e+00  6.63584231e+00  6.66129594e+00  6.66183239e+00
  6.74277258e+00  6.75847134e+00  6.76586687e+00  6.76632494e+00
  7.18380661e+00  7.20465225e+00  7.20575728e+00  7.21868715e+00
  7.24607505e+00  7.24737614e+00  7.27726181e+00  7.28270823e+00
  7.35815722e+00  7.40639502e+00  7.40930062e+00  7.42875606e+00
  9.86773762e+00  9.91189455e+00  9.91569478e+00  9.92150517e+00
  1.05764384e+01  1.05875876e+01  1.05900529e+01  1.08375840e+01
  1.10998752e+01  1.11003014e+01  1.11010133e+01  1.11018910e+01
  1.11022778e+01  1.11025400e+01  1.11042111e+01  1.11043319e+01
  1.11075614e+01  1.11090359e+01  1.11094846e+01  1.11105420e+01
  1.11115971e+01  1.11124389e+01  1.11131032e+01  1.11137237e+01
  1.11150774e+01  1.11154139e+01  1.11182867e+01  1.11188058e+01
  1.11206901e+01  1.11214045e+01  1.11223094e+01  1.11225355e+01
  1.11266833e+01  1.11268556e+01  1.11275879e+01  1.11288241e+01
  1.11307342e+01  1.11311690e+01  1.11341828e+01  1.11344542e+01
  1.11346645e+01  1.11351117e+01  1.11377490e+01  1.11597807e+01
  1.16549731e+01  1.16769029e+01  1.16840978e+01  1.16843908e+01
  1.16898060e+01  1.17049944e+01  1.17062807e+01  1.17073542e+01
  1.17155214e+01  1.17172340e+01  1.17201844e+01  1.17209273e+01
  1.17264587e+01  1.17398107e+01  1.17485687e+01  1.17491922e+01
  1.17624318e+01  1.17628569e+01  1.17792822e+01  1.17894665e+01
  1.17901123e+01  1.18198374e+01  1.18204180e+01  1.18356257e+01
  1.19109848e+01  1.19222503e+01  1.19244143e+01  1.19624635e+01
  1.83107227e+01  1.83658714e+01  1.83671067e+01  1.83877958e+01
  1.84080112e+01  1.84517864e+01  1.84738945e+01  1.84764167e+01
  1.85961487e+01  1.85995942e+01  1.86130112e+01  1.86310206e+01
  2.66622675e+01  2.68144375e+01  2.68158409e+01  2.69089751e+01
  4.10646426e+01  4.10746966e+01  4.10839890e+01  4.10844244e+01
  6.82157292e+01  6.82541840e+01  6.82568441e+01  6.82626423e+01
  6.89683841e+01  6.89727832e+01  6.89754758e+01  6.92027293e+01
  1.07193134e+02  1.07237054e+02  1.07238137e+02  1.07273950e+02
  1.07283482e+02  1.07300958e+02  1.07319554e+02  1.07321648e+02
  1.07439858e+02  1.07442239e+02  1.07462454e+02  1.07479171e+02
  2.60159454e+02  2.60304055e+02  2.60305585e+02  2.60388415e+02
  2.97374138e+02  2.97406316e+02  2.97408946e+02  2.97413628e+02
  2.98143411e+02  2.98147752e+02  2.98150422e+02  2.98342270e+02
  1.34028768e+03  1.34032106e+03  1.34032377e+03  1.34032852e+03
  1.34106412e+03  1.34106865e+03  1.34107134e+03  1.34127020e+03
  1.66118678e+03  1.66133883e+03  1.66134047e+03  1.66142678e+03]
  beta  mo_energy =
[-2.53415042e+02 -2.53412760e+02 -2.53412010e+02 -2.53409711e+02
 -8.83892857e+01 -8.83859997e+01 -8.83853698e+01 -8.83849395e+01
 -8.76076913e+01 -8.76041915e+01 -8.76012986e+01 -8.75996902e+01
 -2.65423341e+01 -2.65401273e+01 -2.65392995e+01 -2.65371223e+01
 -2.20768659e+01 -2.20746632e+01 -2.20737522e+01 -2.20719612e+01
 -2.20715389e+01 -2.20712910e+01 -2.20697091e+01 -2.20690665e+01
 -2.20689507e+01 -2.20682721e+01 -2.20667322e+01 -2.20661200e+01
 -9.46766832e+00 -9.46693797e+00 -9.46499122e+00 -9.46380712e+00
 -7.66754847e+00 -7.66458064e+00 -7.66375440e+00 -7.66353117e+00
 -6.92288435e+00 -6.91966313e+00 -6.91694907e+00 -6.91545297e+00
 -5.64604583e+00 -5.64315723e+00 -5.64302191e+00 -5.64228204e+00
 -5.64197383e+00 -5.64017780e+00 -5.63934531e+00 -5.63912580e+00
 -5.63724405e+00 -5.63421494e+00 -5.63331093e+00 -5.63315038e+00
 -4.89524278e+00 -4.89399846e+00 -4.89198733e+00 -4.89073007e+00
 -4.88930108e+00 -4.88794405e+00 -4.88779607e+00 -4.88643188e+00
 -4.88597562e+00 -4.88272122e+00 -4.88000049e+00 -4.87849712e+00
 -6.91485537e-01 -6.89953037e-01 -6.89149099e-01 -6.87328331e-01
 -4.67719214e-01 -4.66900261e-01 -4.66008147e-01 -4.64962890e-01
 -3.26101221e-01 -3.25385867e-01 -3.23234782e-01 -3.23209813e-01
 -1.19546283e-01 -1.19302844e-01 -1.13358517e-01 -1.13058004e-01
 -9.37566557e-02 -9.33738119e-02 -9.10789475e-02 -9.01301797e-02
 -8.81062369e-02 -8.80411318e-02 -8.41135167e-02 -8.30915222e-02
  1.84177355e-02  1.97900039e-02  2.24931589e-02  2.27456035e-02
  6.53218257e-02  6.70482089e-02  6.85757421e-02  6.90599281e-02
  1.18326092e-01  1.20256471e-01  1.22067398e-01  1.23054333e-01
  2.22725830e-01  2.24663351e-01  2.32510786e-01  2.32720454e-01
  2.64369239e-01  2.66125534e-01  2.74089679e-01  2.74108147e-01
  3.26053668e-01  3.30402919e-01  3.33888478e-01  3.34529981e-01
  3.52219601e-01  3.52587865e-01  3.72631665e-01  3.85566497e-01
  3.91678719e-01  3.93843484e-01  3.94347473e-01  3.94603112e-01
  4.10603089e-01  4.19234887e-01  4.23054245e-01  4.23128566e-01
  4.26219185e-01  4.26453449e-01  4.27610377e-01  4.28351743e-01
  4.31696253e-01  4.38675562e-01  4.39643091e-01  4.40460499e-01
  4.45298139e-01  4.45668223e-01  4.55571122e-01  4.56059008e-01
  4.59381043e-01  4.66957055e-01  4.76125661e-01  4.76344614e-01
  4.76951606e-01  4.95110586e-01  4.96338902e-01  4.96660666e-01
  5.15901605e-01  5.16215412e-01  5.17398325e-01  5.24773936e-01
  5.26316887e-01  5.26789680e-01  5.27227417e-01  5.29495292e-01
  5.32103792e-01  5.33246964e-01  5.34024737e-01  5.34293143e-01
  5.41456177e-01  5.45335892e-01  5.56578910e-01  5.56799287e-01
  5.75660854e-01  5.83967020e-01  5.87916932e-01  5.91687248e-01
  5.92231104e-01  5.95873177e-01  6.04397018e-01  6.05107138e-01
  6.13798279e-01  6.14235824e-01  6.20073269e-01  6.26592936e-01
  6.27093991e-01  6.45545560e-01  6.53382194e-01  6.54136233e-01
  6.64681523e-01  6.66795418e-01  6.74175971e-01  6.74434380e-01
  6.80891251e-01  6.81493860e-01  7.01072704e-01  7.10129112e-01
  7.12011783e-01  7.16207237e-01  7.17637860e-01  7.39294450e-01
  7.42060344e-01  7.42543477e-01  7.60956824e-01  7.63157740e-01
  7.64946823e-01  7.66174445e-01  8.18016218e-01  8.20610115e-01
  8.21028922e-01  8.40000989e-01  8.45931022e-01  8.46191263e-01
  8.50126369e-01  8.50929137e-01  8.57821933e-01  8.58926262e-01
  8.81150144e-01  8.81646317e-01  8.88781208e-01  8.89225735e-01
  8.97709420e-01  8.98223836e-01  8.99986432e-01  9.03899963e-01
  9.11499734e-01  9.16987744e-01  9.25722829e-01  9.30331328e-01
  9.30811048e-01  9.43417490e-01  9.44443253e-01  9.47993506e-01
  9.59030548e-01  9.59151870e-01  9.78929556e-01  1.01151243e+00
  1.01765213e+00  1.02276519e+00  1.03470323e+00  1.03485159e+00
  1.06708344e+00  1.08489400e+00  1.11248306e+00  1.11446108e+00
  1.11461463e+00  1.11680500e+00  1.12614921e+00  1.12691730e+00
  1.14004324e+00  1.14322957e+00  1.15862187e+00  1.15935619e+00
  1.16410736e+00  1.16450639e+00  1.17544507e+00  1.17768282e+00
  1.17932485e+00  1.17992148e+00  1.18694873e+00  1.18920040e+00
  1.18988528e+00  1.19097681e+00  1.19486206e+00  1.19838725e+00
  1.20322355e+00  1.21496878e+00  1.22411945e+00  1.23125892e+00
  1.23176489e+00  1.24783166e+00  1.24816531e+00  1.25892437e+00
  1.26072218e+00  1.26128260e+00  1.26331503e+00  1.27712478e+00
  1.27780558e+00  1.29237737e+00  1.30370233e+00  1.30372913e+00
  1.30404066e+00  1.30917919e+00  1.31176634e+00  1.34243825e+00
  1.36587863e+00  1.36680587e+00  1.38403787e+00  1.39253408e+00
  1.39352135e+00  1.39498117e+00  1.42590893e+00  1.45741248e+00
  1.45798183e+00  1.46368959e+00  1.46488753e+00  1.46607711e+00
  1.46640568e+00  1.47744903e+00  1.49333447e+00  1.49449864e+00
  1.49935368e+00  1.52134052e+00  1.52158481e+00  1.52883982e+00
  1.53985471e+00  1.54096326e+00  1.54174796e+00  1.54380685e+00
  1.54729752e+00  1.56266293e+00  1.56373842e+00  1.57234790e+00
  1.57555892e+00  1.57966328e+00  1.60417878e+00  1.60472153e+00
  1.60642124e+00  1.62243422e+00  1.62609113e+00  1.62659760e+00
  1.64552735e+00  1.64773563e+00  1.64929083e+00  1.64969597e+00
  1.65969855e+00  1.66020798e+00  1.68944801e+00  1.69232124e+00
  1.69330044e+00  1.69763568e+00  1.71271498e+00  1.71343084e+00
  1.72457169e+00  1.73593175e+00  1.73630514e+00  1.73703520e+00
  1.74431827e+00  1.74989622e+00  1.75012547e+00  1.76639232e+00
  1.76769926e+00  1.77857479e+00  1.77875588e+00  1.78435601e+00
  1.79018369e+00  1.79079364e+00  1.79112411e+00  1.79157042e+00
  1.79474255e+00  1.80297683e+00  1.80404567e+00  1.80425581e+00
  1.84620853e+00  1.84777726e+00  1.85374698e+00  1.85493602e+00
  1.85792565e+00  1.90225012e+00  1.90380642e+00  1.93411928e+00
  1.93492776e+00  1.93807026e+00  1.93921555e+00  1.94045779e+00
  1.94204067e+00  1.94582736e+00  1.95771030e+00  1.95906661e+00
  1.96016392e+00  1.96116060e+00  1.98672080e+00  1.98782923e+00
  2.01197524e+00  2.03239390e+00  2.03340842e+00  2.07774147e+00
  2.07820125e+00  2.08302096e+00  2.08411301e+00  2.09315925e+00
  2.11501034e+00  2.11526450e+00  2.12210269e+00  2.12687639e+00
  2.13960490e+00  2.14960505e+00  2.17124067e+00  2.17607171e+00
  2.17788295e+00  2.19119110e+00  2.19275378e+00  2.19652573e+00
  2.20218749e+00  2.22633557e+00  2.22774546e+00  2.23695442e+00
  2.24468185e+00  2.27006891e+00  2.27316418e+00  2.27409395e+00
  2.27689066e+00  2.27882972e+00  2.29133472e+00  2.29232680e+00
  2.29700169e+00  2.29828997e+00  2.29926268e+00  2.30264275e+00
  2.30968244e+00  2.31385450e+00  2.32363294e+00  2.33312157e+00
  2.34737020e+00  2.34783183e+00  2.35166005e+00  2.35682159e+00
  2.36049397e+00  2.36085392e+00  2.37087397e+00  2.37150625e+00
  2.37985620e+00  2.39271326e+00  2.39347282e+00  2.39430925e+00
  2.40915116e+00  2.41722432e+00  2.41816226e+00  2.42573444e+00
  2.42644688e+00  2.43448522e+00  2.44834426e+00  2.44909865e+00
  2.45319684e+00  2.45410488e+00  2.46171275e+00  2.46280281e+00
  2.47058757e+00  2.47938427e+00  2.48300293e+00  2.48462150e+00
  2.50843227e+00  2.50909765e+00  2.51032866e+00  2.51116013e+00
  2.51172993e+00  2.51306981e+00  2.51407710e+00  2.52157669e+00
  2.53601164e+00  2.53630212e+00  2.54421731e+00  2.54888062e+00
  2.54960771e+00  2.55084759e+00  2.55299155e+00  2.56158929e+00
  2.56222637e+00  2.56867623e+00  2.57514911e+00  2.58314310e+00
  2.58347544e+00  2.58625741e+00  2.59356373e+00  2.59431005e+00
  2.61166374e+00  2.61779431e+00  2.61951466e+00  2.62788983e+00
  2.62809725e+00  2.64125336e+00  2.64885241e+00  2.65096828e+00
  2.65273919e+00  2.65566586e+00  2.65782265e+00  2.65980564e+00
  2.66190357e+00  2.67421249e+00  2.67636251e+00  2.68174864e+00
  2.68514075e+00  2.69619536e+00  2.69936324e+00  2.71709816e+00
  2.72519927e+00  2.72711052e+00  2.73279534e+00  2.73847812e+00
  2.77282712e+00  2.77412474e+00  2.79542130e+00  2.79583934e+00
  2.79972829e+00  2.80305663e+00  2.80705896e+00  2.81404065e+00
  2.82936764e+00  2.83220016e+00  2.83609744e+00  2.83654992e+00
  2.84324478e+00  2.84425717e+00  2.84543510e+00  2.84637488e+00
  2.86856433e+00  2.86902612e+00  2.86942787e+00  2.88203841e+00
  2.88460417e+00  2.89396824e+00  2.94700661e+00  2.94877472e+00
  2.98315578e+00  2.98485040e+00  2.99373509e+00  3.00844577e+00
  3.01052820e+00  3.01323842e+00  3.01862497e+00  3.02568107e+00
  3.02766099e+00  3.04807258e+00  3.05850859e+00  3.05949396e+00
  3.07262765e+00  3.10659864e+00  3.12005623e+00  3.12053303e+00
  3.12271281e+00  3.13412697e+00  3.13569211e+00  3.15488577e+00
  3.15610571e+00  3.18536025e+00  3.18852486e+00  3.21237352e+00
  3.24304683e+00  3.24505820e+00  3.24607713e+00  3.28939460e+00
  3.29301649e+00  3.30310819e+00  3.30408576e+00  3.31862549e+00
  3.34163922e+00  3.34902247e+00  3.35487489e+00  3.35654203e+00
  3.36939442e+00  3.36998682e+00  3.37220169e+00  3.37241246e+00
  3.39744452e+00  3.45070328e+00  3.45175969e+00  3.46101873e+00
  3.46321188e+00  3.46477496e+00  3.47948632e+00  3.48241974e+00
  3.60728108e+00  3.61674209e+00  3.62715257e+00  3.62898125e+00
  3.63009169e+00  3.63016446e+00  3.66968766e+00  3.67021420e+00
  3.67605658e+00  3.67878019e+00  3.69897909e+00  3.69965854e+00
  3.86481519e+00  3.86551422e+00  3.87686603e+00  3.87759158e+00
  3.89700189e+00  3.89886948e+00  3.90001391e+00  3.90637937e+00
  3.90873655e+00  3.91621455e+00  3.91992654e+00  3.92063325e+00
  3.93685516e+00  3.93789041e+00  3.95514045e+00  3.95691487e+00
  3.97166627e+00  3.97287708e+00  3.97368234e+00  3.97615368e+00
  3.97829384e+00  3.97972780e+00  3.99778495e+00  3.99857512e+00
  4.00649341e+00  4.00790986e+00  4.07582796e+00  4.07706522e+00
  4.09477570e+00  4.09981151e+00  4.10130433e+00  4.10626371e+00
  4.11818469e+00  4.11960518e+00  4.12393962e+00  4.12556821e+00
  4.12928652e+00  4.13361152e+00  4.13649214e+00  4.17477974e+00
  4.17544558e+00  4.18048370e+00  4.18489906e+00  4.21055461e+00
  4.21172211e+00  4.24305443e+00  4.24414489e+00  4.25906671e+00
  4.26191722e+00  4.27663624e+00  4.28066236e+00  4.29193072e+00
  4.29228768e+00  4.32217668e+00  4.33180819e+00  4.33542270e+00
  4.33896629e+00  4.34051856e+00  4.34419931e+00  4.37208454e+00
  4.38917543e+00  4.38963109e+00  4.39134161e+00  4.39155856e+00
  4.41315957e+00  4.41376818e+00  4.41901491e+00  4.42761449e+00
  4.42800456e+00  4.43886328e+00  4.46718844e+00  4.49139737e+00
  4.49186569e+00  4.54671566e+00  4.54845592e+00  4.55016664e+00
  4.69637440e+00  4.73160888e+00  4.73332488e+00  4.73767543e+00
  5.02312921e+00  5.02576260e+00  5.03354899e+00  5.03402927e+00
  5.13627034e+00  5.13907316e+00  5.15278876e+00  5.15668188e+00
  5.16133683e+00  5.16461533e+00  5.16903122e+00  5.16979309e+00
  5.26055875e+00  5.26553083e+00  5.26709091e+00  5.26979280e+00
  5.29059841e+00  5.29433349e+00  5.31383986e+00  5.31425495e+00
  5.38062498e+00  5.38206206e+00  5.40585598e+00  5.40627506e+00
  5.42068565e+00  5.43115322e+00  5.43517059e+00  5.43550948e+00
  5.44123915e+00  5.46334704e+00  5.46602295e+00  5.46664895e+00
  5.47064122e+00  5.48482236e+00  5.50338933e+00  5.50621736e+00
  5.52133802e+00  5.52186484e+00  5.52353709e+00  5.56736405e+00
  5.60912361e+00  5.62716707e+00  5.63007396e+00  5.63220425e+00
  5.63760861e+00  5.64074655e+00  5.64856599e+00  5.66688851e+00
  5.68490794e+00  5.69371691e+00  5.69443490e+00  5.77102117e+00
  5.77284316e+00  5.81446417e+00  5.84370721e+00  5.84994666e+00
  6.12796003e+00  6.14014494e+00  6.14931554e+00  6.18274763e+00
  6.18440600e+00  6.26125520e+00  6.26954027e+00  6.30115921e+00
  6.30158766e+00  6.38502726e+00  6.38808402e+00  6.38879407e+00
  6.38960513e+00  6.39480690e+00  6.40411078e+00  6.44288252e+00
  6.44653842e+00  6.51880653e+00  6.51999074e+00  6.62906173e+00
  6.66311085e+00  6.66696538e+00  6.69311820e+00  6.69363201e+00
  6.76544117e+00  6.78319330e+00  6.78978895e+00  6.79021813e+00
  7.20896997e+00  7.23078270e+00  7.23191450e+00  7.24419202e+00
  7.27351821e+00  7.27480643e+00  7.30418074e+00  7.31137833e+00
  7.38448876e+00  7.43144892e+00  7.43430987e+00  7.45407477e+00
  9.88719760e+00  9.93143628e+00  9.93519946e+00  9.94103828e+00
  1.05932499e+01  1.06042888e+01  1.06067389e+01  1.08561452e+01
  1.11354526e+01  1.11357921e+01  1.11365715e+01  1.11371330e+01
  1.11376654e+01  1.11378125e+01  1.11394000e+01  1.11396193e+01
  1.11427162e+01  1.11450469e+01  1.11452931e+01  1.11458836e+01
  1.11471528e+01  1.11473781e+01  1.11482646e+01  1.11485791e+01
  1.11494284e+01  1.11501399e+01  1.11515400e+01  1.11518167e+01
  1.11533634e+01  1.11562245e+01  1.11588004e+01  1.11589005e+01
  1.11597839e+01  1.11599640e+01  1.11626065e+01  1.11639000e+01
  1.11643908e+01  1.11658347e+01  1.11661195e+01  1.11668504e+01
  1.11700676e+01  1.11701274e+01  1.11718895e+01  1.11943777e+01
  1.17011862e+01  1.17217395e+01  1.17302885e+01  1.17305805e+01
  1.17320406e+01  1.17498866e+01  1.17501975e+01  1.17528305e+01
  1.17580155e+01  1.17596251e+01  1.17627786e+01  1.17632776e+01
  1.17703419e+01  1.17806036e+01  1.17932277e+01  1.17938618e+01
  1.18065506e+01  1.18069738e+01  1.18226466e+01  1.18314278e+01
  1.18320498e+01  1.18641870e+01  1.18649569e+01  1.18811026e+01
  1.19558097e+01  1.19670038e+01  1.19691071e+01  1.20055369e+01
  1.83465058e+01  1.84018144e+01  1.84030831e+01  1.84285566e+01
  1.84467812e+01  1.84875706e+01  1.85131020e+01  1.85155438e+01
  1.86335464e+01  1.86369307e+01  1.86492124e+01  1.86689075e+01
  2.66958728e+01  2.68480310e+01  2.68494333e+01  2.69425577e+01
  4.10672274e+01  4.10772836e+01  4.10865785e+01  4.10870001e+01
  6.82314711e+01  6.82699358e+01  6.82725893e+01  6.82783875e+01
  6.89824851e+01  6.89868487e+01  6.89895083e+01  6.92168337e+01
  1.07205293e+02  1.07249261e+02  1.07250350e+02  1.07287811e+02
  1.07296629e+02  1.07313218e+02  1.07332865e+02  1.07334941e+02
  1.07452798e+02  1.07455160e+02  1.07475513e+02  1.07491604e+02
  2.60166363e+02  2.60310968e+02  2.60312497e+02  2.60395328e+02
  2.97384509e+02  2.97416693e+02  2.97419320e+02  2.97424000e+02
  2.98152760e+02  2.98157077e+02  2.98159724e+02  2.98351607e+02
  1.34029172e+03  1.34032510e+03  1.34032781e+03  1.34033257e+03
  1.34106747e+03  1.34107199e+03  1.34107467e+03  1.34127354e+03
  1.66118859e+03  1.66134064e+03  1.66134228e+03  1.66142859e+03]
multiplicity <S^2> = 90.081263  2S+1 = 19.008552
nelec by numeric integration = [144.00129384 126.00069976]
    CPU time for vxc    183.27 sec, wall time      5.22 sec
    CPU time for vj and vk    925.47 sec, wall time     26.16 sec
E1 = -19984.80301766331  Ecoul = 7269.2873180025335  Exc = -429.17128901485563
cycle= 2 E= -8106.62036966408  delta_E=  328  |g|= 26.3  |ddm|= 95.4
    CPU time for cycle= 2   1119.91 sec, wall time     32.11 sec
diis-norm(errvec)=72.2417
diis-c [-1.69407076e+02  9.37212685e-01  6.27873154e-02]
  alpha nocc = 144  HOMO = 0.391721895988166  LUMO = 0.39964827015998
  beta  nocc = 126  HOMO = 0.258798227656831  LUMO = 0.269056482236619

WARN: system HOMO 0.411314651254805 >= system LUMO 0.269056482236619

  alpha mo_energy =
[-2.54695924e+02 -2.54680281e+02 -2.54668454e+02 -2.54654538e+02
 -8.83738346e+01 -8.83717194e+01 -8.83678746e+01 -8.83668940e+01
 -8.80767282e+01 -8.80756436e+01 -8.80751734e+01 -8.80737472e+01
 -2.77695388e+01 -2.77555979e+01 -2.77451477e+01 -2.77329449e+01
 -2.33119636e+01 -2.33062389e+01 -2.33061252e+01 -2.32975442e+01
 -2.32922055e+01 -2.32920027e+01 -2.32867347e+01 -2.32817035e+01
 -2.32813766e+01 -2.32739637e+01 -2.32694554e+01 -2.32690547e+01
 -9.41710630e+00 -9.41432892e+00 -9.41271984e+00 -9.41143550e+00
 -7.67065096e+00 -7.66856874e+00 -7.66490941e+00 -7.66396100e+00
 -7.37886815e+00 -7.37778141e+00 -7.37728699e+00 -7.37580557e+00
 -5.65138917e+00 -5.64930978e+00 -5.64803929e+00 -5.64594514e+00
 -5.64564548e+00 -5.64470783e+00 -5.64378968e+00 -5.64226040e+00
 -5.64172721e+00 -5.64131327e+00 -5.63800656e+00 -5.63703112e+00
 -5.35719672e+00 -5.35611331e+00 -5.35558898e+00 -5.35533315e+00
 -5.35425856e+00 -5.35411811e+00 -5.35384461e+00 -5.35240436e+00
 -5.35081976e+00 -5.34971783e+00 -5.34921053e+00 -5.34773451e+00
 -1.66233857e+00 -1.65189516e+00 -1.64419571e+00 -1.63504068e+00
 -5.17671511e-01 -5.14623192e-01 -5.12080619e-01 -5.10824201e-01
 -4.89958661e-01 -4.80175778e-01 -4.76625618e-01 -4.71882519e-01
 -4.67720270e-01 -4.63807336e-01 -4.62760233e-01 -4.58889592e-01
 -4.54755506e-01 -4.51068150e-01 -4.47522065e-01 -4.40154760e-01
 -3.07722411e-01 -3.05945681e-01 -3.03103538e-01 -3.02212003e-01
 -2.48911274e-01 -2.44884192e-01 -2.44298462e-01 -2.42481975e-01
 -1.24211252e-01 -1.22429716e-01 -1.19984714e-01 -1.19923252e-01
 -1.16368801e-01 -1.14307894e-01 -1.12716527e-01 -1.12645218e-01
 -1.02930685e-01 -1.01833629e-01 -9.28494843e-02 -9.23412304e-02
 -3.63128478e-02 -3.45882548e-02 -2.68518347e-02 -2.55332690e-02
 -2.36376519e-02 -2.21029708e-02 -1.61427651e-02 -1.59962457e-02
  1.33674911e-01  1.37093933e-01  1.37323565e-01  1.39824694e-01
  1.43685490e-01  1.46979291e-01  1.47122422e-01  1.50128388e-01
  1.99784760e-01  2.14708135e-01  2.16425793e-01  2.17234191e-01
  2.30446952e-01  2.31906373e-01  2.46521606e-01  2.47338527e-01
  2.70668341e-01  2.72047182e-01  2.72911755e-01  2.73336986e-01
  3.14059762e-01  3.18384001e-01  3.22472789e-01  3.22586991e-01
  3.34184632e-01  3.34549227e-01  3.48446965e-01  3.58893263e-01
  3.67576860e-01  3.68572742e-01  3.89867853e-01  3.91721896e-01
  3.99648270e-01  4.00317622e-01  4.03864296e-01  4.04252774e-01
  4.16984817e-01  4.19766920e-01  4.21865474e-01  4.23553056e-01
  4.23788897e-01  4.34415155e-01  4.45795156e-01  4.46629957e-01
  4.53628070e-01  4.54337173e-01  4.56975977e-01  4.57562226e-01
  4.67335638e-01  4.69052304e-01  4.74389570e-01  4.74865650e-01
  4.80437470e-01  4.85659780e-01  4.86049575e-01  4.90895900e-01
  4.95896114e-01  5.00508586e-01  5.04109822e-01  5.10158593e-01
  5.14235778e-01  5.14638431e-01  5.41570370e-01  5.41882568e-01
  5.52597917e-01  5.60967230e-01  5.61515847e-01  5.64254578e-01
  5.69368223e-01  5.75255916e-01  5.76032531e-01  5.77876138e-01
  5.80874455e-01  5.93083630e-01  6.27936407e-01  6.35440220e-01
  6.35801056e-01  6.42080091e-01  6.56086672e-01  6.62199641e-01
  6.67795738e-01  6.68562741e-01  6.86769579e-01  6.87355669e-01
  6.88749246e-01  6.96069183e-01  6.96938416e-01  7.03667490e-01
  7.04845093e-01  7.05491926e-01  7.09606392e-01  7.11427002e-01
  7.23851447e-01  7.24632123e-01  7.28818746e-01  7.35373630e-01
  7.35841596e-01  7.38053236e-01  7.38089958e-01  7.47289894e-01
  7.53062031e-01  7.53688740e-01  7.70465695e-01  7.73330467e-01
  7.75233011e-01  7.81246122e-01  7.89035373e-01  7.91461273e-01
  8.03651800e-01  8.04084739e-01  8.17535100e-01  8.20261378e-01
  8.26755982e-01  8.27048303e-01  8.42866518e-01  8.57268788e-01
  8.57648649e-01  8.64578855e-01  8.70433631e-01  8.71172735e-01
  8.75432498e-01  8.76287959e-01  8.78395167e-01  8.86792805e-01
  8.87633379e-01  8.89959232e-01  8.94865291e-01  8.95088985e-01
  9.01409140e-01  9.11512252e-01  9.12758334e-01  9.66900212e-01
  9.70394245e-01  1.01185295e+00  1.01246834e+00  1.02496268e+00
  1.03314099e+00  1.03412570e+00  1.03740764e+00  1.05413184e+00
  1.06270635e+00  1.06954678e+00  1.07021814e+00  1.07814395e+00
  1.08653698e+00  1.09691859e+00  1.09752263e+00  1.09784239e+00
  1.09937117e+00  1.10087505e+00  1.10140474e+00  1.10683916e+00
  1.10809241e+00  1.10949521e+00  1.12350578e+00  1.12663671e+00
  1.13292863e+00  1.14077557e+00  1.14241271e+00  1.14480199e+00
  1.15004242e+00  1.15817072e+00  1.15888431e+00  1.17141280e+00
  1.17763393e+00  1.17902519e+00  1.18721709e+00  1.18770183e+00
  1.18826599e+00  1.19109467e+00  1.19168438e+00  1.19719237e+00
  1.21301320e+00  1.21576139e+00  1.22416307e+00  1.22450688e+00
  1.24392382e+00  1.24519103e+00  1.26360101e+00  1.29273564e+00
  1.29350871e+00  1.29507330e+00  1.30271820e+00  1.30352458e+00
  1.30471513e+00  1.30707131e+00  1.31437868e+00  1.32483470e+00
  1.37091700e+00  1.38038059e+00  1.39860416e+00  1.40741127e+00
  1.41239133e+00  1.41441440e+00  1.41861347e+00  1.42531032e+00
  1.42725121e+00  1.42798621e+00  1.50372965e+00  1.51025574e+00
  1.51173760e+00  1.51342532e+00  1.51506573e+00  1.51816511e+00
  1.52293290e+00  1.53063036e+00  1.53438290e+00  1.54076943e+00
  1.54164888e+00  1.55418832e+00  1.56167665e+00  1.56613728e+00
  1.56891571e+00  1.57052717e+00  1.57573819e+00  1.58133354e+00
  1.58197226e+00  1.61565897e+00  1.61685683e+00  1.62015604e+00
  1.62165882e+00  1.62227932e+00  1.62404296e+00  1.62876110e+00
  1.63285314e+00  1.64101476e+00  1.64145825e+00  1.64425225e+00
  1.66222767e+00  1.66427395e+00  1.66612389e+00  1.67783870e+00
  1.67874576e+00  1.68343581e+00  1.68374150e+00  1.68471331e+00
  1.70560822e+00  1.70588884e+00  1.70688086e+00  1.71263853e+00
  1.71827083e+00  1.72348265e+00  1.72462205e+00  1.73253835e+00
  1.73436462e+00  1.73818096e+00  1.74253523e+00  1.74355371e+00
  1.74910539e+00  1.74939118e+00  1.74973754e+00  1.75825171e+00
  1.75946794e+00  1.76673096e+00  1.77131635e+00  1.77513197e+00
  1.77927497e+00  1.79367023e+00  1.79592135e+00  1.80270950e+00
  1.80839139e+00  1.80944718e+00  1.83157211e+00  1.83347196e+00
  1.83500111e+00  1.83688848e+00  1.83827314e+00  1.83884323e+00
  1.83927816e+00  1.85032650e+00  1.85878873e+00  1.86912524e+00
  1.87027591e+00  1.88246546e+00  1.88788698e+00  1.88842216e+00
  1.89000566e+00  1.89565381e+00  1.89841460e+00  1.90795257e+00
  1.90839145e+00  1.91009480e+00  1.91122714e+00  1.91400021e+00
  1.93168878e+00  1.93254000e+00  1.93365921e+00  1.93978255e+00
  1.94972421e+00  1.95017418e+00  1.96438510e+00  1.96553297e+00
  1.97600137e+00  1.97982183e+00  1.98696927e+00  1.98729905e+00
  1.98883807e+00  2.01814278e+00  2.02277990e+00  2.02481649e+00
  2.02625294e+00  2.02918523e+00  2.05141795e+00  2.05179374e+00
  2.05521301e+00  2.05739756e+00  2.05845279e+00  2.06152758e+00
  2.07165684e+00  2.07225973e+00  2.07536539e+00  2.07716358e+00
  2.07955459e+00  2.08362356e+00  2.09123767e+00  2.10139357e+00
  2.10305179e+00  2.10808528e+00  2.15286838e+00  2.15427376e+00
  2.16439339e+00  2.16613991e+00  2.16714294e+00  2.18503439e+00
  2.19294291e+00  2.19344811e+00  2.19603826e+00  2.23493480e+00
  2.23595419e+00  2.23772518e+00  2.24116738e+00  2.24300083e+00
  2.25388659e+00  2.26337367e+00  2.28559214e+00  2.28680726e+00
  2.32862124e+00  2.34103238e+00  2.34332701e+00  2.35312863e+00
  2.36830204e+00  2.36954548e+00  2.40022714e+00  2.40903841e+00
[...]
  2.99999963e+00  3.03089163e+00  3.03169045e+00  3.03187783e+00
  3.05559292e+00  3.05748467e+00  3.09531478e+00  3.09595883e+00
  3.23457697e+00  3.23536913e+00  3.23810164e+00  3.25718972e+00
  3.25789037e+00  3.27857923e+00  3.30306405e+00  3.30731308e+00
  3.34165519e+00  3.34231577e+00  3.34243059e+00  3.34282470e+00
  3.34400173e+00  3.34428089e+00  3.34462433e+00  3.35834924e+00
  3.36212963e+00  3.36549338e+00  3.37751458e+00  3.39705168e+00
  3.40483014e+00  3.42809510e+00  3.43314048e+00  3.43355992e+00
  3.44063915e+00  3.49138958e+00  3.49223240e+00  3.51367292e+00
  3.51400301e+00  3.51755516e+00  3.54570480e+00  3.55853760e+00
  3.55937770e+00  3.56028636e+00  3.56071988e+00  3.56297078e+00
  3.58049017e+00  3.58114372e+00  3.58192555e+00  3.58450145e+00
  3.59132746e+00  3.60992936e+00  3.61092189e+00  3.67535339e+00
  3.67616844e+00  3.72912594e+00  3.73201400e+00  3.76046935e+00
  3.80557219e+00  3.80624981e+00  3.82037229e+00  3.84257861e+00
  3.84268277e+00  3.84603879e+00  3.85157710e+00  3.85237245e+00
  3.85908887e+00  3.86345485e+00  3.87746632e+00  3.87811986e+00
  3.88322037e+00  3.88357579e+00  3.88407206e+00  3.88800950e+00
  3.90064881e+00  3.90155845e+00  3.91548661e+00  3.91932266e+00
  3.94533652e+00  3.94708845e+00  3.95588202e+00  3.95636447e+00
  4.01031971e+00  4.02055867e+00  4.04410028e+00  4.04547190e+00
  4.05501792e+00  4.05633980e+00  4.06079386e+00  4.06239896e+00
  4.07752241e+00  4.08220143e+00  4.10349063e+00  4.10360006e+00
  4.28414494e+00  4.28526993e+00  4.28957336e+00  4.29095647e+00
  4.30072743e+00  4.30124041e+00  4.31059423e+00  4.31546744e+00
  4.31671003e+00  4.34298410e+00  4.34627283e+00  4.34651022e+00
  4.35804465e+00  4.40843325e+00  4.41098688e+00  4.42840361e+00
  4.47909095e+00  4.48790507e+00  4.55052516e+00  4.55426361e+00
  4.66760408e+00  4.66926523e+00  4.67883163e+00  4.68552200e+00
  4.96343592e+00  4.96498251e+00  4.97593123e+00  4.97617540e+00
  5.07145665e+00  5.07377457e+00  5.08984590e+00  5.09293120e+00
  5.11363405e+00  5.12293401e+00  5.12690512e+00  5.12759172e+00
  5.19867743e+00  5.20438271e+00  5.20460659e+00  5.20601484e+00
  5.22349354e+00  5.22755380e+00  5.24281265e+00  5.24346663e+00
  5.32226110e+00  5.32256099e+00  5.34759932e+00  5.34845930e+00
  5.36600614e+00  5.36788303e+00  5.44916556e+00  5.45368101e+00
  5.52589520e+00  5.52770124e+00  5.57880157e+00  5.58229746e+00
  5.60678739e+00  5.60696881e+00  5.66072909e+00  5.66320525e+00
  6.04990742e+00  6.06494522e+00  6.14661300e+00  6.14728231e+00
  6.48205482e+00  6.48610129e+00  6.48636848e+00  6.49119241e+00
  6.61256462e+00  6.61277001e+00  6.62222514e+00  6.64088733e+00
  6.65738811e+00  6.66956361e+00  6.67042290e+00  6.69797499e+00
  6.72432022e+00  6.73501030e+00  6.73609226e+00  6.73848256e+00
  6.74846150e+00  6.81344243e+00  6.81791759e+00  6.81959201e+00
  6.83333891e+00  6.84351370e+00  6.84967026e+00  6.85073987e+00
  8.95969383e+00  8.96141563e+00  8.96171870e+00  8.96187185e+00
  8.96197149e+00  8.96266462e+00  8.96273076e+00  8.96288691e+00
  8.96291260e+00  8.96308233e+00  8.96487491e+00  8.96499433e+00
  8.96578323e+00  8.96585904e+00  8.96621343e+00  8.96637798e+00
  8.96664733e+00  8.96713723e+00  8.96720272e+00  8.96725203e+00
  8.97052960e+00  8.97120754e+00  8.97168026e+00  8.97377143e+00
  8.97584030e+00  8.97598678e+00  8.97675439e+00  8.97726610e+00
  8.97928885e+00  8.97935470e+00  8.98318428e+00  8.98382190e+00
  8.98408475e+00  8.98565225e+00  8.98886579e+00  8.99431006e+00
  9.14243564e+00  9.15756718e+00  9.15829143e+00  9.17066813e+00
  9.17109651e+00  9.18857688e+00  9.18913109e+00  9.19133290e+00
  9.19459526e+00  9.19798588e+00  9.19810622e+00  9.19913749e+00
  9.21575409e+00  9.21823274e+00  9.23884150e+00  9.24744908e+00
  9.25407519e+00  9.25442818e+00  9.26933546e+00  9.28563365e+00
  9.28616356e+00  9.31963587e+00  9.32106117e+00  9.33869143e+00
  9.40033270e+00  9.41021019e+00  9.43024388e+00  9.43263081e+00
  9.96984619e+00  9.97055196e+00  9.98994259e+00  9.99408056e+00
  1.01149711e+01  1.01279648e+01  1.01297959e+01  1.03615736e+01
  1.56349766e+01  1.56926015e+01  1.56939507e+01  1.57260023e+01
  1.57447693e+01  1.57777078e+01  1.58070940e+01  1.58095358e+01
  1.59268429e+01  1.59299097e+01  1.59463473e+01  1.59603468e+01
  2.37109466e+01  2.38659640e+01  2.38674076e+01  2.39628073e+01
  4.08243967e+01  4.08346664e+01  4.08436583e+01  4.08438822e+01
  6.84023081e+01  6.84029518e+01  6.84174500e+01  6.84195760e+01
  6.85135129e+01  6.85285011e+01  6.85298615e+01  6.87038920e+01
  1.03944279e+02  1.03988230e+02  1.03989504e+02  1.04030680e+02
  1.04038804e+02  1.04052264e+02  1.04074544e+02  1.04076717e+02
  1.04192806e+02  1.04195359e+02  1.04215160e+02  1.04232147e+02
  2.56842498e+02  2.56987630e+02  2.56989145e+02  2.57072096e+02
  2.97596742e+02  2.97597350e+02  2.97607196e+02  2.97611249e+02
  2.97688950e+02  2.97701842e+02  2.97703024e+02  2.97852743e+02
  1.34052033e+03  1.34052097e+03  1.34053060e+03  1.34053512e+03
  1.34061514e+03  1.34062852e+03  1.34062976e+03  1.34078535e+03
  1.65782639e+03  1.65797855e+03  1.65798017e+03  1.65806643e+03]
  beta  mo_energy =
[-2.56779332e+02 -2.56779142e+02 -2.56779126e+02 -2.56779038e+02
 -8.81293232e+01 -8.81289200e+01 -8.81289107e+01 -8.81286702e+01
 -8.81156516e+01 -8.81156075e+01 -8.81154804e+01 -8.81154393e+01
 -2.97765401e+01 -2.97764539e+01 -2.97763895e+01 -2.97763185e+01
 -2.53372937e+01 -2.53371797e+01 -2.53371778e+01 -2.53370950e+01
 -2.53361518e+01 -2.53360309e+01 -2.53359937e+01 -2.53359314e+01
 -2.53353815e+01 -2.53352894e+01 -2.53352413e+01 -2.53351975e+01
 -9.71926739e+00 -9.71907971e+00 -9.71825274e+00 -9.71820286e+00
 -7.47305082e+00 -7.47274865e+00 -7.47262929e+00 -7.47250464e+00
 -7.46123506e+00 -7.46118012e+00 -7.46104453e+00 -7.46096971e+00
 -5.44998310e+00 -5.44963688e+00 -5.44954679e+00 -5.44938855e+00
 -5.44275728e+00 -5.44245619e+00 -5.44235221e+00 -5.44221379e+00
 -5.44139660e+00 -5.44110327e+00 -5.44097614e+00 -5.44085933e+00
 -5.43276898e+00 -5.43271679e+00 -5.43258119e+00 -5.43250882e+00
 -5.43243222e+00 -5.43238154e+00 -5.43234901e+00 -5.43228894e+00
 -5.43224870e+00 -5.43217137e+00 -5.43214697e+00 -5.43207988e+00
 -3.07584738e+00 -3.07561558e+00 -3.07555228e+00 -3.07547927e+00
 -1.83569387e+00 -1.83472713e+00 -1.83461711e+00 -1.83408895e+00
 -1.83333584e+00 -1.83237913e+00 -1.83232026e+00 -1.83216729e+00
 -1.83214175e+00 -1.83149701e+00 -1.83146589e+00 -1.83127608e+00
 -4.74768549e-01 -4.74405017e-01 -4.72251917e-01 -4.72187754e-01
 -3.99034196e-01 -3.74048611e-01 -3.73781790e-01 -3.71610287e-01
 -3.40891059e-01 -3.40293512e-01 -3.37774850e-01 -3.37620533e-01
 -1.82021426e-01 -1.80886103e-01 -1.72588848e-01 -1.72144010e-01
 -1.69949163e-01 -1.69292117e-01 -1.63127385e-01 -1.62654333e-01
 -1.13121228e-01 -1.09205597e-01 -1.05974326e-01 -1.05910739e-01
 -9.58744856e-02 -7.07137777e-02 -7.06777612e-02 -6.95829385e-02
 -4.19828505e-02 -4.07706980e-02 -3.80725662e-02 -3.78407171e-02
 -3.67695935e-02 -2.24503346e-02 -2.22879020e-02 -1.98647788e-02
 -1.97736239e-02 -1.69698674e-02 -1.56174265e-02 -1.55473763e-02
  1.01258406e-02  1.66866307e-02  1.68875320e-02  1.81482031e-02
  4.79342339e-02  5.21580405e-02  6.58190530e-02  7.55416746e-02
  7.67833952e-02  7.70161997e-02  7.87070038e-02  9.37918665e-02
  9.39799432e-02  9.40292814e-02  1.08526113e-01  1.18780122e-01
  1.19490256e-01  1.29566334e-01  1.30376350e-01  1.30868310e-01
  1.32568599e-01  1.43186821e-01  1.50042947e-01  1.50157995e-01
  2.04541380e-01  2.08326025e-01  2.24847394e-01  2.29101705e-01
  2.29315146e-01  2.48732368e-01  2.48862278e-01  2.51310455e-01
  2.62747511e-01  2.65252023e-01  2.65475252e-01  2.73549701e-01
  2.86498736e-01  2.87114175e-01  2.90290275e-01  3.02920766e-01
  3.17693239e-01  3.18053758e-01  3.31883617e-01  3.32159706e-01
  3.46640174e-01  3.52202957e-01  3.54397461e-01  3.57973170e-01
  3.61138666e-01  3.67154679e-01  3.71196911e-01  3.76677398e-01
  3.98109930e-01  3.98145391e-01  3.98671810e-01  4.10422450e-01
  4.10982252e-01  4.16556681e-01  4.22221391e-01  4.22803142e-01
  4.27162543e-01  4.27692048e-01  4.33673509e-01  4.35072582e-01
  4.35207034e-01  4.40550219e-01  4.50354822e-01  4.50805801e-01
  4.50945711e-01  4.58110011e-01  4.59101716e-01  4.59240440e-01
  4.62749842e-01  4.63698752e-01  4.69819955e-01  4.70542405e-01
  4.72003144e-01  4.72493339e-01  4.81140903e-01  4.87183005e-01
  4.96184868e-01  4.96435848e-01  4.99371253e-01  5.07368660e-01
  5.07659795e-01  5.09022194e-01  5.09804204e-01  5.26837571e-01
  5.27201559e-01  5.28465183e-01  5.32846736e-01  5.41737848e-01
  5.62423916e-01  5.62696905e-01  5.71150883e-01  5.73477022e-01
  5.88137573e-01  5.88483258e-01  5.92189261e-01  5.97751657e-01
  5.98869709e-01  6.04205728e-01  6.04451717e-01  6.25234511e-01
  6.25307285e-01  6.26772801e-01  6.32643812e-01  6.33337934e-01
  6.34977975e-01  6.44120353e-01  6.45584993e-01  6.53817312e-01
  6.61003183e-01  6.74964885e-01  6.75263650e-01  6.89386321e-01
  6.93409952e-01  6.96855462e-01  7.02275549e-01  7.09726882e-01
  7.10938590e-01  7.21312539e-01  7.21822814e-01  7.25360297e-01
  7.25768523e-01  7.36145144e-01  7.38880873e-01  7.47827305e-01
  7.48233849e-01  7.65711027e-01  7.75654964e-01  7.75838040e-01
  7.77521903e-01  7.94331423e-01  7.94935118e-01  8.24081792e-01
  8.36694534e-01  8.37382614e-01  8.39866854e-01  8.45173281e-01
  8.53822997e-01  8.54321496e-01  8.56306980e-01  8.59232312e-01
  8.61566667e-01  8.61958771e-01  8.71085656e-01  8.93883732e-01
  8.99042327e-01  9.28928337e-01  9.33014677e-01  9.34358665e-01
  9.43438658e-01  9.55983894e-01  9.56520080e-01  9.74080959e-01
  9.74377603e-01  1.00235365e+00  1.00307440e+00  1.00354876e+00
  1.01786857e+00  1.01867217e+00  1.03286503e+00  1.04196766e+00
  1.04790599e+00  1.04822583e+00  1.05737984e+00  1.05891958e+00
  1.05936776e+00  1.08211434e+00  1.08481226e+00  1.09546636e+00
  1.09963823e+00  1.10460825e+00  1.11039341e+00  1.11070103e+00
  1.11695622e+00  1.13298282e+00  1.13551541e+00  1.14077300e+00
  1.14226928e+00  1.14677891e+00  1.14996765e+00  1.15417973e+00
  1.15486962e+00  1.18362011e+00  1.18492293e+00  1.18562296e+00
  1.19616111e+00  1.20167308e+00  1.20225280e+00  1.20453390e+00
  1.21569049e+00  1.21610824e+00  1.22175751e+00  1.23708606e+00
  1.23950044e+00  1.25030623e+00  1.25039591e+00  1.25769586e+00
  1.26984134e+00  1.29393488e+00  1.30248313e+00  1.30339669e+00
  1.30865351e+00  1.32403021e+00  1.32605832e+00  1.33301884e+00
  1.33510726e+00  1.34671290e+00  1.35672802e+00  1.37094602e+00
  1.37388520e+00  1.37477477e+00  1.38210736e+00  1.38315777e+00
  1.39161779e+00  1.39748005e+00  1.40266635e+00  1.41154145e+00
  1.41180763e+00  1.41305406e+00  1.45599373e+00  1.45822436e+00
  1.46096171e+00  1.47659573e+00  1.48827211e+00  1.48890039e+00
  1.49083931e+00  1.49312223e+00  1.49953585e+00  1.50557398e+00
  1.50956363e+00  1.51209420e+00  1.57779986e+00  1.57874184e+00
  1.67306724e+00  1.68341119e+00  1.68401728e+00  1.69913163e+00
  1.70416282e+00  1.70785619e+00  1.70834124e+00  1.70952849e+00
  1.70978670e+00  1.71237420e+00  1.71564789e+00  1.71593724e+00
  1.72455779e+00  1.72478368e+00  1.72782206e+00  1.73419164e+00
  1.73603114e+00  1.73980578e+00  1.74086976e+00  1.74290190e+00
  1.74496687e+00  1.74530387e+00  1.74565824e+00  1.74716972e+00
  1.75913181e+00  1.75953775e+00  1.76907792e+00  1.77697893e+00
  1.77824064e+00  1.77896475e+00  1.77940734e+00  1.77942597e+00
  1.79431174e+00  1.79570791e+00  1.80606941e+00  1.80645663e+00
  1.80814592e+00  1.81740969e+00  1.81756752e+00  1.81810260e+00
  1.81980214e+00  1.83026108e+00  1.83651264e+00  1.83685069e+00
  1.83705314e+00  1.84481386e+00  1.84552139e+00  1.84609829e+00
  1.85058718e+00  1.85204394e+00  1.85360399e+00  1.86425068e+00
  1.86444554e+00  1.87521991e+00  1.87715349e+00  1.88565876e+00
  1.88626599e+00  1.89182134e+00  1.90277146e+00  1.90501495e+00
  1.91869312e+00  1.91920314e+00  1.92751492e+00  1.93331777e+00
  1.93494902e+00  1.93553795e+00  1.95682921e+00  1.95808497e+00
  1.96461857e+00  1.96772344e+00  1.97765971e+00  1.97940990e+00
  1.98745068e+00  1.99243600e+00  1.99375948e+00  2.00343207e+00
  2.00426930e+00  2.01084507e+00  2.02112738e+00  2.02347739e+00
  2.02386634e+00  2.02998057e+00  2.03926693e+00  2.04012424e+00
  2.06659279e+00  2.06757085e+00  2.06807324e+00  2.06870910e+00
  2.07879861e+00  2.09887722e+00  2.10079031e+00  2.11008939e+00
  2.11670394e+00  2.11903410e+00  2.12046243e+00  2.14034878e+00
  2.15720201e+00  2.16481261e+00  2.16783804e+00  2.18109066e+00
  2.18207965e+00  2.18857973e+00  2.19232629e+00  2.21853992e+00
  2.22466861e+00  2.22741009e+00  2.23216268e+00  2.24733926e+00
  2.24860996e+00  2.25404692e+00  2.26315857e+00  2.26683780e+00
  2.27922180e+00  2.28072723e+00  2.28936299e+00  2.28961052e+00
  2.30041410e+00  2.31496001e+00  2.33277280e+00  2.33562645e+00
  2.34091043e+00  2.34232756e+00  2.34279439e+00  2.34828352e+00
  2.36509011e+00  2.37249433e+00  2.38440718e+00  2.40760724e+00
  2.40775105e+00  2.41286345e+00  2.41445070e+00  2.41721593e+00
  2.42899158e+00  2.42921092e+00  2.47602448e+00  2.48090122e+00
  2.48615511e+00  2.49096225e+00  2.49246578e+00  2.49428428e+00
  2.49838052e+00  2.50543490e+00  2.51219917e+00  2.51339173e+00
  2.55174445e+00  2.56703986e+00  2.56896019e+00  2.56953531e+00
  2.57686909e+00  2.57717993e+00  2.60091998e+00  2.60317312e+00
  2.60791502e+00  2.63639844e+00  2.63731239e+00  2.63807292e+00
  2.63898149e+00  2.64361250e+00  2.64684094e+00  2.66979721e+00
  2.68295593e+00  2.68327993e+00  2.69635427e+00  2.71075903e+00
  2.71167572e+00  2.74944742e+00  2.75757330e+00  2.76609776e+00
  2.76683692e+00  2.76750519e+00  2.77057086e+00  2.77123580e+00
  2.78200923e+00  2.78314607e+00  2.78413626e+00  2.79271513e+00
  2.80026228e+00  2.80785384e+00  2.80976821e+00  2.82320127e+00
  2.82420480e+00  2.83005391e+00  2.84456455e+00  2.85240971e+00
  2.85424553e+00  2.87558909e+00  2.87976360e+00  2.89166937e+00
  2.92357166e+00  2.92733968e+00  2.93614540e+00  2.93857889e+00
  2.93992411e+00  2.94715253e+00  2.95573519e+00  2.96920638e+00
  2.98785399e+00  2.98911652e+00  3.00566395e+00  3.05491510e+00
  3.05743000e+00  3.05815129e+00  3.06351016e+00  3.06426589e+00
  3.06509971e+00  3.09730697e+00  3.10572419e+00  3.10691388e+00
  3.23638384e+00  3.23712626e+00  3.25882624e+00  3.25951767e+00
  3.29888196e+00  3.32510243e+00  3.34354831e+00  3.34366653e+00
  3.34536560e+00  3.35727163e+00  3.35852985e+00  3.35872362e+00
  3.36446286e+00  3.36681515e+00  3.36953587e+00  3.37251219e+00
  3.44484767e+00  3.44628321e+00  3.46148400e+00  3.47916019e+00
  3.48828963e+00  3.50597085e+00  3.52417387e+00  3.52468939e+00
  3.53213741e+00  3.53311292e+00  3.53739401e+00  3.56152525e+00
  3.56258279e+00  3.56337971e+00  3.56385287e+00  3.57053875e+00
  3.57140187e+00  3.58711781e+00  3.58966862e+00  3.59851897e+00
  3.59870638e+00  3.61139719e+00  3.61521830e+00  3.61594106e+00
  3.61792827e+00  3.64005717e+00  3.67088398e+00  3.74922950e+00
  3.74973981e+00  3.79497154e+00  3.80477161e+00  3.80625663e+00
  3.80739232e+00  3.80913622e+00  3.82846690e+00  3.84428742e+00
  3.84592093e+00  3.85302298e+00  3.85382947e+00  3.85697035e+00
  3.86137308e+00  3.88019442e+00  3.88065670e+00  3.88597538e+00
  3.89017054e+00  3.89552652e+00  3.89599878e+00  3.90178257e+00
  3.90282392e+00  3.90371932e+00  3.92176864e+00  3.92774954e+00
  3.94716726e+00  3.94916758e+00  3.96272349e+00  3.96316429e+00
  4.01153447e+00  4.02239454e+00  4.04554988e+00  4.04685450e+00
  4.05646208e+00  4.05770669e+00  4.06221862e+00  4.06379707e+00
  4.08032017e+00  4.08546149e+00  4.10537997e+00  4.10549797e+00
  4.28558098e+00  4.28684529e+00  4.29102181e+00  4.29250387e+00
  4.30387596e+00  4.31250171e+00  4.31838577e+00  4.31876176e+00
  4.33911277e+00  4.34581688e+00  4.35021606e+00  4.35051815e+00
  4.41084748e+00  4.49479889e+00  4.49751052e+00  4.51639258e+00
  4.56206685e+00  4.57599667e+00  4.63451886e+00  4.63824627e+00
  4.75194282e+00  4.75364188e+00  4.76324552e+00  4.76713266e+00
  4.96492311e+00  4.96641624e+00  4.97743737e+00  4.97767930e+00
  5.07275765e+00  5.07507970e+00  5.09118947e+00  5.09428182e+00
  5.11542654e+00  5.12544043e+00  5.12898237e+00  5.12984627e+00
  5.19961838e+00  5.20531909e+00  5.20553082e+00  5.20695289e+00
  5.22498403e+00  5.22896786e+00  5.24421717e+00  5.24486404e+00
  5.32346150e+00  5.32376725e+00  5.34878186e+00  5.34964935e+00
  5.36749350e+00  5.36913336e+00  5.45031970e+00  5.45483995e+00
  5.52690996e+00  5.52871469e+00  5.57989934e+00  5.58340869e+00
  5.60784498e+00  5.60802592e+00  5.66173125e+00  5.66421499e+00
  6.05252301e+00  6.06728421e+00  6.14931980e+00  6.14996421e+00
  6.48946815e+00  6.49330983e+00  6.49357031e+00  6.49839000e+00
  6.62288769e+00  6.62302693e+00  6.63389959e+00  6.65335572e+00
  6.66226530e+00  6.68036116e+00  6.68112639e+00  6.70524620e+00
  6.73480264e+00  6.74133415e+00  6.74236759e+00  6.74523837e+00
  6.75948581e+00  6.81795667e+00  6.82633006e+00  6.82763867e+00
  6.83794564e+00  6.85333814e+00  6.85576118e+00  6.85714441e+00
  9.08932602e+00  9.08936376e+00  9.08946452e+00  9.08951760e+00
  9.08964023e+00  9.09069993e+00  9.09079864e+00  9.09145246e+00
  9.09182605e+00  9.09186634e+00  9.09189330e+00  9.09300774e+00
  9.09402890e+00  9.09412997e+00  9.09414437e+00  9.09438071e+00
  9.09448024e+00  9.09483447e+00  9.09577850e+00  9.09619845e+00
  9.09681166e+00  9.09797440e+00  9.09807778e+00  9.09821744e+00
  9.09854796e+00  9.09995205e+00  9.09998810e+00  9.10210206e+00
  9.10520661e+00  9.10537762e+00  9.10643624e+00  9.10833017e+00
  9.10896966e+00  9.10910857e+00  9.10942544e+00  9.11771461e+00
  9.28618559e+00  9.30229321e+00  9.30891591e+00  9.31894626e+00
  9.31960167e+00  9.32975924e+00  9.33088867e+00  9.33381213e+00
  9.33932948e+00  9.33950913e+00  9.34216670e+00  9.34816584e+00
  9.36448492e+00  9.37287291e+00  9.38100030e+00  9.38538756e+00
  9.40161148e+00  9.40180217e+00  9.42486456e+00  9.43331594e+00
  9.43406928e+00  9.47138301e+00  9.47210228e+00  9.48058870e+00
  9.53310682e+00  9.54005647e+00  9.56300299e+00  9.56521082e+00
  9.97615792e+00  9.97688056e+00  9.99740400e+00  9.99762840e+00
  1.01226999e+01  1.01346931e+01  1.01365652e+01  1.03742112e+01
  1.57562241e+01  1.58134661e+01  1.58148661e+01  1.58461738e+01
  1.58628876e+01  1.58985436e+01  1.59254116e+01  1.59277704e+01
  1.60470121e+01  1.60501150e+01  1.60649126e+01  1.60806677e+01
  2.38177016e+01  2.39724494e+01  2.39738758e+01  2.40689710e+01
  4.08249233e+01  4.08351960e+01  4.08441896e+01  4.08444084e+01
  6.84067642e+01  6.84074344e+01  6.84202843e+01  6.84242848e+01
  6.85167330e+01  6.85319195e+01  6.85332900e+01  6.87090280e+01
  1.03983683e+02  1.04027632e+02  1.04028899e+02  1.04069765e+02
  1.04077411e+02  1.04091614e+02  1.04113180e+02  1.04115329e+02
  1.04232092e+02  1.04234646e+02  1.04254511e+02  1.04270921e+02
  2.56861070e+02  2.57006194e+02  2.57007707e+02  2.57090644e+02
  2.97599695e+02  2.97600327e+02  2.97609108e+02  2.97614374e+02
  2.97691149e+02  2.97704167e+02  2.97705357e+02  2.97856183e+02
  1.34052145e+03  1.34052211e+03  1.34053136e+03  1.34053630e+03
  1.34061600e+03  1.34062943e+03  1.34063067e+03  1.34078664e+03
  1.65782915e+03  1.65798131e+03  1.65798294e+03  1.65806919e+03]
multiplicity <S^2> = 90.049406  2S+1 = 19.0052
E1 = -21788.79612417786  Ecoul = 8763.829157564984  Exc = -459.7143996075431
macro= 2  E= -8446.61474720887  delta_E= 1.45519e-11  |g|= 4.60229e-07  1 KF 2 JK
    CPU time for cycle= 3   1981.58 sec, wall time     57.00 sec
Canonicalize SCF orbitals
macro X = 3  E=-8446.61474720887  |g|= 4.60229e-07  total 10 KF 50 JK

WARN: HOMO 0.07611849695946928 > LUMO 0.06581905295926606 was found in the canonicalized orbitals.

    CPU time for Second order SCF  45867.06 sec, wall time   1313.56 sec
converged SCF energy = -8446.61474720887  <S^2> = 90.049407  2S+1 = 19.0052
