[Molden Format]
made by pyscf v[1.6.5]
[Atoms] (AU)
S   1   16     0.07558904498260    -3.36371250172581    -2.44152615293806
S   2   16    -0.07558904498260     3.36371250172581    -2.44341587906262
S   3   16     3.36371250172581    -0.07558904498260     2.44530560518719
S   4   16    -3.36371250172581     0.07558904498260     2.44719533131176
Fe   5   26     0.09448630622825    -2.58892479065414     1.91996174255810
Fe   6   26    -2.60782205189978     0.09448630622825    -1.90295420743702
Fe   7   26    -0.09448630622825     2.60782205189978     1.90484393356158
Fe   8   26     2.58892479065414    -0.09448630622825    -1.92563092093180
S   9   16     0.45353426989561     6.23609621106470     4.04590363269380
S   10   16    -0.45353426989561    -6.21719894981905     4.04609260530625
S   11   16    -6.21719894981905    -0.45353426989561    -4.04628157791871
S   12   16     6.21719894981905     0.45353426989561    -4.04647055053117
C   13   6    -7.18095927334723    -3.47709606919971    -2.61046766847418
H   14   1    -7.38882914704939    -3.23143167300626    -0.55085516531072
H   15   1    -8.99509635292969    -4.10070569030618    -3.42342784726207
H   16   1    -5.72587015743214    -4.91328792386916    -2.95118528873326
C   17   6     7.18095927334723     3.45819880795406    -2.61122355892400
H   18   1     7.38882914704939     3.23143167300626    -0.55161105576054
H   19   1     8.99509635292969     4.08180842906053    -3.42418373771189
H   20   1     5.72587015743214     4.89439066262351    -2.93304391793743
C   21   6    -3.45819880795406    -7.18095927334723     2.61197944937383
H   22   1    -4.08180842906053    -8.99509635292969     3.42475065554926
H   23   1    -4.89439066262351    -5.72587015743214     2.93361083577480
H   24   1    -3.21253441176060    -7.38882914704939     0.55274489143528
C   25   6     3.47709606919971     7.18095927334723     2.61273533982365
H   26   1     4.10070569030618     8.99509635292969     3.42550654599909
H   27   1     4.91328792386916     5.72587015743214     2.95326398747028
H   28   1     3.23143167300626     7.38882914704939     0.54802057612387
[GTO]
1 0
 s    5 1.00
       131334.98114592   0.004900029954672
        20181.90041917   0.018510718616524
         4835.70463137   0.066508300963639
          1439.7381539    0.23442745803641
          476.15426264    0.75920319935527
 s    2 1.00
            3.37495581    -0.6585952448555
            1.51749916   -0.36774281304806
 s    1 1.00
          168.68252004                   1
 s    1 1.00
           62.92253974                   1
 s    1 1.00
           24.33329987                   1
 s    1 1.00
            6.86573753                   1
 s    1 1.00
            0.44651463                   1
 s    1 1.00
            0.16174242                   1
 p    6 1.00
           754.1523594  0.0018880392695063
          193.63344693   0.012415787013658
           64.14106193   0.058846979762122
           23.75714449    0.19568881772651
            9.45234322    0.40880788238935
            3.93996824    0.48080058752795
 p    1 1.00
            1.72080555                   1
 p    1 1.00
            0.77076298                   1
 p    1 1.00
            0.28737379                   1
 p    1 1.00
             0.1011323                   1
 d    1 1.00
              0.264839                   1
 d    1 1.00
              0.781337                   1
 f    1 1.00
               0.58379                   1

2 0
 s    5 1.00
       131334.98114592   0.004900029954672
        20181.90041917   0.018510718616524
         4835.70463137   0.066508300963639
          1439.7381539    0.23442745803641
          476.15426264    0.75920319935527
 s    2 1.00
            3.37495581    -0.6585952448555
            1.51749916   -0.36774281304806
 s    1 1.00
          168.68252004                   1
 s    1 1.00
           62.92253974                   1
 s    1 1.00
           24.33329987                   1
 s    1 1.00
            6.86573753                   1
 s    1 1.00
            0.44651463                   1
 s    1 1.00
            0.16174242                   1
 p    6 1.00
           754.1523594  0.0018880392695063
          193.63344693   0.012415787013658
           64.14106193   0.058846979762122
           23.75714449    0.19568881772651
            9.45234322    0.40880788238935
            3.93996824    0.48080058752795
 p    1 1.00
            1.72080555                   1
 p    1 1.00
            0.77076298                   1
 p    1 1.00
            0.28737379                   1
 p    1 1.00
             0.1011323                   1
 d    1 1.00
              0.264839                   1
 d    1 1.00
              0.781337                   1
 f    1 1.00
               0.58379                   1

3 0
 s    5 1.00
       131334.98114592   0.004900029954672
        20181.90041917   0.018510718616524
         4835.70463137   0.066508300963639
          1439.7381539    0.23442745803641
          476.15426264    0.75920319935527
 s    2 1.00
            3.37495581    -0.6585952448555
            1.51749916   -0.36774281304806
 s    1 1.00
          168.68252004                   1
 s    1 1.00
           62.92253974                   1
 s    1 1.00
           24.33329987                   1
 s    1 1.00
            6.86573753                   1
 s    1 1.00
            0.44651463                   1
 s    1 1.00
            0.16174242                   1
 p    6 1.00
           754.1523594  0.0018880392695063
          193.63344693   0.012415787013658
           64.14106193   0.058846979762122
           23.75714449    0.19568881772651
            9.45234322    0.40880788238935
            3.93996824    0.48080058752795
 p    1 1.00
            1.72080555                   1
 p    1 1.00
            0.77076298                   1
 p    1 1.00
            0.28737379                   1
 p    1 1.00
             0.1011323                   1
 d    1 1.00
              0.264839                   1
 d    1 1.00
              0.781337                   1
 f    1 1.00
               0.58379                   1

4 0
 s    5 1.00
       131334.98114592   0.004900029954672
        20181.90041917   0.018510718616524
         4835.70463137   0.066508300963639
          1439.7381539    0.23442745803641
          476.15426264    0.75920319935527
 s    2 1.00
            3.37495581    -0.6585952448555
            1.51749916   -0.36774281304806
 s    1 1.00
          168.68252004                   1
 s    1 1.00
           62.92253974                   1
 s    1 1.00
           24.33329987                   1
 s    1 1.00
            6.86573753                   1
 s    1 1.00
            0.44651463                   1
 s    1 1.00
            0.16174242                   1
 p    6 1.00
           754.1523594  0.0018880392695063
          193.63344693   0.012415787013658
           64.14106193   0.058846979762122
           23.75714449    0.19568881772651
            9.45234322    0.40880788238935
            3.93996824    0.48080058752795
 p    1 1.00
            1.72080555                   1
 p    1 1.00
            0.77076298                   1
 p    1 1.00
            0.28737379                   1
 p    1 1.00
             0.1011323                   1
 d    1 1.00
              0.264839                   1
 d    1 1.00
              0.781337                   1
 f    1 1.00
               0.58379                   1

5 0
 s    6 1.00
       489363.91999756   0.003350001379677
        76936.88249538   0.010014735201831
        19111.87896905   0.029489541326053
         5953.14711781   0.083206542360293
         2026.23124631    0.25505082434793
          720.41679911    0.71419663548118
 s    2 1.00
          109.11058782    0.74093523374345
           46.72162464    0.28463634357546
 s    2 1.00
            2.44747866    0.38985772703801
             1.1660482    0.63355089030013
 s    1 1.00
          270.92857792                   1
 s    1 1.00
           17.32120133                   1
 s    1 1.00
            7.50518249                   1
 s    1 1.00
            0.53243004                   1
 s    1 1.00
            0.11921823                   1
 s    1 1.00
            0.04225089                   1
 p    5 1.00
         4524.59978956  0.0028146526066035
         1117.10671951   0.015786411749766
          383.18041997   0.070309713574534
          150.91292643    0.25732484525004
           63.20731062    0.74016694058612
 p    2 1.00
           27.51598778    0.50655350945781
           12.38754653    0.54061897628066
 p    3 1.00
            2.50956697    0.52194043612711
            1.07890467    0.50540565320498
            0.43388971   0.037298440805319
 p    1 1.00
            5.64019838                   1
 p    1 1.00
              0.819521                   1
 p    1 1.00
            0.42475725                   1
 d    4 1.00
           57.37689087   0.021868805390254
            16.5000892    0.12813186610507
            5.79890555     0.3863088025741
            2.17706897    0.63484874555344
 d    1 1.00
            0.79292368                   1
 d    1 1.00
            0.26063792                   1
 f    1 1.00
            3.44034529                   1
 f    1 1.00
            0.84589748                   1
 g    1 1.00
            2.25265017                   1

6 0
 s    6 1.00
       489363.91999756   0.003350001379677
        76936.88249538   0.010014735201831
        19111.87896905   0.029489541326053
         5953.14711781   0.083206542360293
         2026.23124631    0.25505082434793
          720.41679911    0.71419663548118
 s    2 1.00
          109.11058782    0.74093523374345
           46.72162464    0.28463634357546
 s    2 1.00
            2.44747866    0.38985772703801
             1.1660482    0.63355089030013
 s    1 1.00
          270.92857792                   1
 s    1 1.00
           17.32120133                   1
 s    1 1.00
            7.50518249                   1
 s    1 1.00
            0.53243004                   1
 s    1 1.00
            0.11921823                   1
 s    1 1.00
            0.04225089                   1
 p    5 1.00
         4524.59978956  0.0028146526066035
         1117.10671951   0.015786411749766
          383.18041997   0.070309713574534
          150.91292643    0.25732484525004
           63.20731062    0.74016694058612
 p    2 1.00
           27.51598778    0.50655350945781
           12.38754653    0.54061897628066
 p    3 1.00
            2.50956697    0.52194043612711
            1.07890467    0.50540565320498
            0.43388971   0.037298440805319
 p    1 1.00
            5.64019838                   1
 p    1 1.00
              0.819521                   1
 p    1 1.00
            0.42475725                   1
 d    4 1.00
           57.37689087   0.021868805390254
            16.5000892    0.12813186610507
            5.79890555     0.3863088025741
            2.17706897    0.63484874555344
 d    1 1.00
            0.79292368                   1
 d    1 1.00
            0.26063792                   1
 f    1 1.00
            3.44034529                   1
 f    1 1.00
            0.84589748                   1
 g    1 1.00
            2.25265017                   1

7 0
 s    6 1.00
       489363.91999756   0.003350001379677
        76936.88249538   0.010014735201831
        19111.87896905   0.029489541326053
         5953.14711781   0.083206542360293
         2026.23124631    0.25505082434793
          720.41679911    0.71419663548118
 s    2 1.00
          109.11058782    0.74093523374345
           46.72162464    0.28463634357546
 s    2 1.00
            2.44747866    0.38985772703801
             1.1660482    0.63355089030013
 s    1 1.00
          270.92857792                   1
 s    1 1.00
           17.32120133                   1
 s    1 1.00
            7.50518249                   1
 s    1 1.00
            0.53243004                   1
 s    1 1.00
            0.11921823                   1
 s    1 1.00
            0.04225089                   1
 p    5 1.00
         4524.59978956  0.0028146526066035
         1117.10671951   0.015786411749766
          383.18041997   0.070309713574534
          150.91292643    0.25732484525004
           63.20731062    0.74016694058612
 p    2 1.00
           27.51598778    0.50655350945781
           12.38754653    0.54061897628066
 p    3 1.00
            2.50956697    0.52194043612711
            1.07890467    0.50540565320498
            0.43388971   0.037298440805319
 p    1 1.00
            5.64019838                   1
 p    1 1.00
              0.819521                   1
 p    1 1.00
            0.42475725                   1
 d    4 1.00
           57.37689087   0.021868805390254
            16.5000892    0.12813186610507
            5.79890555     0.3863088025741
            2.17706897    0.63484874555344
 d    1 1.00
            0.79292368                   1
 d    1 1.00
            0.26063792                   1
 f    1 1.00
            3.44034529                   1
 f    1 1.00
            0.84589748                   1
 g    1 1.00
            2.25265017                   1

8 0
 s    6 1.00
       489363.91999756   0.003350001379677
        76936.88249538   0.010014735201831
        19111.87896905   0.029489541326053
         5953.14711781   0.083206542360293
         2026.23124631    0.25505082434793
          720.41679911    0.71419663548118
 s    2 1.00
          109.11058782    0.74093523374345
           46.72162464    0.28463634357546
 s    2 1.00
            2.44747866    0.38985772703801
             1.1660482    0.63355089030013
 s    1 1.00
          270.92857792                   1
 s    1 1.00
           17.32120133                   1
 s    1 1.00
            7.50518249                   1
 s    1 1.00
            0.53243004                   1
 s    1 1.00
            0.11921823                   1
 s    1 1.00
            0.04225089                   1
 p    5 1.00
         4524.59978956  0.0028146526066035
         1117.10671951   0.015786411749766
          383.18041997   0.070309713574534
          150.91292643    0.25732484525004
           63.20731062    0.74016694058612
 p    2 1.00
           27.51598778    0.50655350945781
           12.38754653    0.54061897628066
 p    3 1.00
            2.50956697    0.52194043612711
            1.07890467    0.50540565320498
            0.43388971   0.037298440805319
 p    1 1.00
            5.64019838                   1
 p    1 1.00
              0.819521                   1
 p    1 1.00
            0.42475725                   1
 d    4 1.00
           57.37689087   0.021868805390254
            16.5000892    0.12813186610507
            5.79890555     0.3863088025741
            2.17706897    0.63484874555344
 d    1 1.00
            0.79292368                   1
 d    1 1.00
            0.26063792                   1
 f    1 1.00
            3.44034529                   1
 f    1 1.00
            0.84589748                   1
 g    1 1.00
            2.25265017                   1

9 0
 s    5 1.00
       131334.98114592   0.004900029954672
        20181.90041917   0.018510718616524
         4835.70463137   0.066508300963639
          1439.7381539    0.23442745803641
          476.15426264    0.75920319935527
 s    2 1.00
            3.37495581    -0.6585952448555
            1.51749916   -0.36774281304806
 s    1 1.00
          168.68252004                   1
 s    1 1.00
           62.92253974                   1
 s    1 1.00
           24.33329987                   1
 s    1 1.00
            6.86573753                   1
 s    1 1.00
            0.44651463                   1
 s    1 1.00
            0.16174242                   1
 p    6 1.00
           754.1523594  0.0018880392695063
          193.63344693   0.012415787013658
           64.14106193   0.058846979762122
           23.75714449    0.19568881772651
            9.45234322    0.40880788238935
            3.93996824    0.48080058752795
 p    1 1.00
            1.72080555                   1
 p    1 1.00
            0.77076298                   1
 p    1 1.00
            0.28737379                   1
 p    1 1.00
             0.1011323                   1
 d    1 1.00
              0.264839                   1
 d    1 1.00
              0.781337                   1
 f    1 1.00
               0.58379                   1

10 0
 s    5 1.00
       131334.98114592   0.004900029954672
        20181.90041917   0.018510718616524
         4835.70463137   0.066508300963639
          1439.7381539    0.23442745803641
          476.15426264    0.75920319935527
 s    2 1.00
            3.37495581    -0.6585952448555
            1.51749916   -0.36774281304806
 s    1 1.00
          168.68252004                   1
 s    1 1.00
           62.92253974                   1
 s    1 1.00
           24.33329987                   1
 s    1 1.00
            6.86573753                   1
 s    1 1.00
            0.44651463                   1
 s    1 1.00
            0.16174242                   1
 p    6 1.00
           754.1523594  0.0018880392695063
          193.63344693   0.012415787013658
           64.14106193   0.058846979762122
           23.75714449    0.19568881772651
            9.45234322    0.40880788238935
            3.93996824    0.48080058752795
 p    1 1.00
            1.72080555                   1
 p    1 1.00
            0.77076298                   1
 p    1 1.00
            0.28737379                   1
 p    1 1.00
             0.1011323                   1
 d    1 1.00
              0.264839                   1
 d    1 1.00
              0.781337                   1
 f    1 1.00
               0.58379                   1

11 0
 s    5 1.00
       131334.98114592   0.004900029954672
        20181.90041917   0.018510718616524
         4835.70463137   0.066508300963639
          1439.7381539    0.23442745803641
          476.15426264    0.75920319935527
 s    2 1.00
            3.37495581    -0.6585952448555
            1.51749916   -0.36774281304806
 s    1 1.00
          168.68252004                   1
 s    1 1.00
           62.92253974                   1
 s    1 1.00
           24.33329987                   1
 s    1 1.00
            6.86573753                   1
 s    1 1.00
            0.44651463                   1
 s    1 1.00
            0.16174242                   1
 p    6 1.00
           754.1523594  0.0018880392695063
          193.63344693   0.012415787013658
           64.14106193   0.058846979762122
           23.75714449    0.19568881772651
            9.45234322    0.40880788238935
            3.93996824    0.48080058752795
 p    1 1.00
            1.72080555                   1
 p    1 1.00
            0.77076298                   1
 p    1 1.00
            0.28737379                   1
 p    1 1.00
             0.1011323                   1
 d    1 1.00
              0.264839                   1
 d    1 1.00
              0.781337                   1
 f    1 1.00
               0.58379                   1

12 0
 s    5 1.00
       131334.98114592   0.004900029954672
        20181.90041917   0.018510718616524
         4835.70463137   0.066508300963639
          1439.7381539    0.23442745803641
          476.15426264    0.75920319935527
 s    2 1.00
            3.37495581    -0.6585952448555
            1.51749916   -0.36774281304806
 s    1 1.00
          168.68252004                   1
 s    1 1.00
           62.92253974                   1
 s    1 1.00
           24.33329987                   1
 s    1 1.00
            6.86573753                   1
 s    1 1.00
            0.44651463                   1
 s    1 1.00
            0.16174242                   1
 p    6 1.00
           754.1523594  0.0018880392695063
          193.63344693   0.012415787013658
           64.14106193   0.058846979762122
           23.75714449    0.19568881772651
            9.45234322    0.40880788238935
            3.93996824    0.48080058752795
 p    1 1.00
            1.72080555                   1
 p    1 1.00
            0.77076298                   1
 p    1 1.00
            0.28737379                   1
 p    1 1.00
             0.1011323                   1
 d    1 1.00
              0.264839                   1
 d    1 1.00
              0.781337                   1
 f    1 1.00
               0.58379                   1

13 0
 s    5 1.00
          7615.0599911  0.0022244960654013
         1145.08684615   0.014140944039399
          261.91952431     0.0697499873722
           74.66834196     0.2637788237864
           24.40551202    0.73342883264723
 s    2 1.00
            8.68679013    0.58931282466157
            3.23657623    0.45281759130673
 s    1 1.00
            1.30179999                   1
 s    1 1.00
            0.52768873                   1
 s    1 1.00
            0.15694534                   1
 p    4 1.00
           34.50767936    0.01182072267457
            7.91304441    0.07777295570278
            2.36615458    0.31452402468813
            0.81172425    0.71532158178263
 p    1 1.00
            0.31228882                   1
 p    1 1.00
            0.11400266                   1
 d    1 1.00
              1.154049                   1
 d    1 1.00
             0.3511286                   1
 f    1 1.00
              0.819312                   1

14 0
 s    3 1.00
           34.87758369   0.024909420015424
            5.23397281    0.18219013687198
            1.18503342     0.8591140347034
 s    1 1.00
            0.32833943                   1
 s    1 1.00
            0.11031918                   1
 p    1 1.00
              0.718844                   1
 p    1 1.00
                  0.35                   1
 d    1 1.00
               1.07506                   1

15 0
 s    3 1.00
           34.87758369   0.024909420015424
            5.23397281    0.18219013687198
            1.18503342     0.8591140347034
 s    1 1.00
            0.32833943                   1
 s    1 1.00
            0.11031918                   1
 p    1 1.00
              0.718844                   1
 p    1 1.00
                  0.35                   1
 d    1 1.00
               1.07506                   1

16 0
 s    3 1.00
           34.87758369   0.024909420015424
            5.23397281    0.18219013687198
            1.18503342     0.8591140347034
 s    1 1.00
            0.32833943                   1
 s    1 1.00
            0.11031918                   1
 p    1 1.00
              0.718844                   1
 p    1 1.00
                  0.35                   1
 d    1 1.00
               1.07506                   1

17 0
 s    5 1.00
          7615.0599911  0.0022244960654013
         1145.08684615   0.014140944039399
          261.91952431     0.0697499873722
           74.66834196     0.2637788237864
           24.40551202    0.73342883264723
 s    2 1.00
            8.68679013    0.58931282466157
            3.23657623    0.45281759130673
 s    1 1.00
            1.30179999                   1
 s    1 1.00
            0.52768873                   1
 s    1 1.00
            0.15694534                   1
 p    4 1.00
           34.50767936    0.01182072267457
            7.91304441    0.07777295570278
            2.36615458    0.31452402468813
            0.81172425    0.71532158178263
 p    1 1.00
            0.31228882                   1
 p    1 1.00
            0.11400266                   1
 d    1 1.00
              1.154049                   1
 d    1 1.00
             0.3511286                   1
 f    1 1.00
              0.819312                   1

18 0
 s    3 1.00
           34.87758369   0.024909420015424
            5.23397281    0.18219013687198
            1.18503342     0.8591140347034
 s    1 1.00
            0.32833943                   1
 s    1 1.00
            0.11031918                   1
 p    1 1.00
              0.718844                   1
 p    1 1.00
                  0.35                   1
 d    1 1.00
               1.07506                   1

19 0
 s    3 1.00
           34.87758369   0.024909420015424
            5.23397281    0.18219013687198
            1.18503342     0.8591140347034
 s    1 1.00
            0.32833943                   1
 s    1 1.00
            0.11031918                   1
 p    1 1.00
              0.718844                   1
 p    1 1.00
                  0.35                   1
 d    1 1.00
               1.07506                   1

20 0
 s    3 1.00
           34.87758369   0.024909420015424
            5.23397281    0.18219013687198
            1.18503342     0.8591140347034
 s    1 1.00
            0.32833943                   1
 s    1 1.00
            0.11031918                   1
 p    1 1.00
              0.718844                   1
 p    1 1.00
                  0.35                   1
 d    1 1.00
               1.07506                   1

21 0
 s    5 1.00
          7615.0599911  0.0022244960654013
         1145.08684615   0.014140944039399
          261.91952431     0.0697499873722
           74.66834196     0.2637788237864
           24.40551202    0.73342883264723
 s    2 1.00
            8.68679013    0.58931282466157
            3.23657623    0.45281759130673
 s    1 1.00
            1.30179999                   1
 s    1 1.00
            0.52768873                   1
 s    1 1.00
            0.15694534                   1
 p    4 1.00
           34.50767936    0.01182072267457
            7.91304441    0.07777295570278
            2.36615458    0.31452402468813
            0.81172425    0.71532158178263
 p    1 1.00
            0.31228882                   1
 p    1 1.00
            0.11400266                   1
 d    1 1.00
              1.154049                   1
 d    1 1.00
             0.3511286                   1
 f    1 1.00
              0.819312                   1

22 0
 s    3 1.00
           34.87758369   0.024909420015424
            5.23397281    0.18219013687198
            1.18503342     0.8591140347034
 s    1 1.00
            0.32833943                   1
 s    1 1.00
            0.11031918                   1
 p    1 1.00
              0.718844                   1
 p    1 1.00
                  0.35                   1
 d    1 1.00
               1.07506                   1

23 0
 s    3 1.00
           34.87758369   0.024909420015424
            5.23397281    0.18219013687198
            1.18503342     0.8591140347034
 s    1 1.00
            0.32833943                   1
 s    1 1.00
            0.11031918                   1
 p    1 1.00
              0.718844                   1
 p    1 1.00
                  0.35                   1
 d    1 1.00
               1.07506                   1

24 0
 s    3 1.00
           34.87758369   0.024909420015424
            5.23397281    0.18219013687198
            1.18503342     0.8591140347034
 s    1 1.00
            0.32833943                   1
 s    1 1.00
            0.11031918                   1
 p    1 1.00
              0.718844                   1
 p    1 1.00
                  0.35                   1
 d    1 1.00
               1.07506                   1

25 0
 s    5 1.00
          7615.0599911  0.0022244960654013
         1145.08684615   0.014140944039399
          261.91952431     0.0697499873722
           74.66834196     0.2637788237864
           24.40551202    0.73342883264723
 s    2 1.00
            8.68679013    0.58931282466157
            3.23657623    0.45281759130673
 s    1 1.00
            1.30179999                   1
 s    1 1.00
            0.52768873                   1
 s    1 1.00
            0.15694534                   1
 p    4 1.00
           34.50767936    0.01182072267457
            7.91304441    0.07777295570278
            2.36615458    0.31452402468813
            0.81172425    0.71532158178263
 p    1 1.00
            0.31228882                   1
 p    1 1.00
            0.11400266                   1
 d    1 1.00
              1.154049                   1
 d    1 1.00
             0.3511286                   1
 f    1 1.00
              0.819312                   1

26 0
 s    3 1.00
           34.87758369   0.024909420015424
            5.23397281    0.18219013687198
            1.18503342     0.8591140347034
 s    1 1.00
            0.32833943                   1
 s    1 1.00
            0.11031918                   1
 p    1 1.00
              0.718844                   1
 p    1 1.00
                  0.35                   1
 d    1 1.00
               1.07506                   1

27 0
 s    3 1.00
           34.87758369   0.024909420015424
            5.23397281    0.18219013687198
            1.18503342     0.8591140347034
 s    1 1.00
            0.32833943                   1
 s    1 1.00
            0.11031918                   1
 p    1 1.00
              0.718844                   1
 p    1 1.00
                  0.35                   1
 d    1 1.00
               1.07506                   1

28 0
 s    3 1.00
           34.87758369   0.024909420015424
            5.23397281    0.18219013687198
            1.18503342     0.8591140347034
 s    1 1.00
            0.32833943                   1
 s    1 1.00
            0.11031918                   1
 p    1 1.00
              0.718844                   1
 p    1 1.00
                  0.35                   1
 d    1 1.00
               1.07506                   1

[5d]
[7f]
[9g]

[MO]
 Sym= A
 Ene=               0
 Spin= Alpha
 Occup=    1.00000
   1    3.5683467089036e-05
   2    0.0011979850692425
   3    8.1334912699936e-05
   4    0.00015623376200656
   5    0.00019154476364327
   6    -0.0004106074190427
   7    0.00035852614252256
   8     0.002760462650517
   9    0.00018264185432268
  10    -0.0002762369050232
  11    -0.00034881848553319
  12    1.7937896749468e-05
  13    7.421396642566e-05
  14    3.5638999878291e-05
  15    -0.00021358938517346
  16    0.00026183704699956
  17    0.00037871599840327